s 0.000000000 _5_ AGT  --- 0 cbr 1000 [0 0 0 0] ------- [5:0 5:1 32 0] [0] 0 0
r 0.000000000 _5_ AGT  --- 0 cbr 1000 [0 0 0 0] ------- [5:0 5:1 32 0] [0] 0 0
s 0.008000000 _5_ AGT  --- 1 cbr 1000 [0 0 0 0] ------- [5:0 5:1 32 0] [1] 0 0
r 0.008000000 _5_ AGT  --- 1 cbr 1000 [0 0 0 0] ------- [5:0 5:1 32 0] [1] 0 0
s 0.016000000 _5_ AGT  --- 2 cbr 1000 [0 0 0 0] ------- [5:0 5:1 32 0] [2] 0 0
r 0.016000000 _5_ AGT  --- 2 cbr 1000 [0 0 0 0] ------- [5:0 5:1 32 0] [2] 0 0
s 0.024000000 _5_ AGT  --- 3 cbr 1000 [0 0 0 0] ------- [5:0 5:1 32 0] [3] 0 0
r 0.024000000 _5_ AGT  --- 3 cbr 1000 [0 0 0 0] ------- [5:0 5:1 32 0] [3] 0 0
s 0.032000000 _5_ AGT  --- 4 cbr 1000 [0 0 0 0] ------- [5:0 5:1 32 0] [4] 0 0
r 0.032000000 _5_ AGT  --- 4 cbr 1000 [0 0 0 0] ------- [5:0 5:1 32 0] [4] 0 0
s 0.040000000 _5_ AGT  --- 5 cbr 1000 [0 0 0 0] ------- [5:0 5:1 32 0] [5] 0 0
r 0.040000000 _5_ AGT  --- 5 cbr 1000 [0 0 0 0] ------- [5:0 5:1 32 0] [5] 0 0
s 0.048000000 _5_ AGT  --- 6 cbr 1000 [0 0 0 0] ------- [5:0 5:1 32 0] [6] 0 0
r 0.048000000 _5_ AGT  --- 6 cbr 1000 [0 0 0 0] ------- [5:0 5:1 32 0] [6] 0 0
s 0.056000000 _5_ AGT  --- 7 cbr 1000 [0 0 0 0] ------- [5:0 5:1 32 0] [7] 0 0
r 0.056000000 _5_ AGT  --- 7 cbr 1000 [0 0 0 0] ------- [5:0 5:1 32 0] [7] 0 0
s 0.064000000 _5_ AGT  --- 8 cbr 1000 [0 0 0 0] ------- [5:0 5:1 32 0] [8] 0 0
r 0.064000000 _5_ AGT  --- 8 cbr 1000 [0 0 0 0] ------- [5:0 5:1 32 0] [8] 0 0
s 0.072000000 _5_ AGT  --- 9 cbr 1000 [0 0 0 0] ------- [5:0 5:1 32 0] [9] 0 0
r 0.072000000 _5_ AGT  --- 9 cbr 1000 [0 0 0 0] ------- [5:0 5:1 32 0] [9] 0 0
s 0.080000000 _5_ AGT  --- 10 cbr 1000 [0 0 0 0] ------- [5:0 5:1 32 0] [10] 0 0
r 0.080000000 _5_ AGT  --- 10 cbr 1000 [0 0 0 0] ------- [5:0 5:1 32 0] [10] 0 0
s 0.088000000 _5_ AGT  --- 11 cbr 1000 [0 0 0 0] ------- [5:0 5:1 32 0] [11] 0 0
r 0.088000000 _5_ AGT  --- 11 cbr 1000 [0 0 0 0] ------- [5:0 5:1 32 0] [11] 0 0
s 0.096000000 _5_ AGT  --- 12 cbr 1000 [0 0 0 0] ------- [5:0 5:1 32 0] [12] 0 0
r 0.096000000 _5_ AGT  --- 12 cbr 1000 [0 0 0 0] ------- [5:0 5:1 32 0] [12] 0 0
s 0.104000000 _5_ AGT  --- 13 cbr 1000 [0 0 0 0] ------- [5:0 5:1 32 0] [13] 0 0
r 0.104000000 _5_ AGT  --- 13 cbr 1000 [0 0 0 0] ------- [5:0 5:1 32 0] [13] 0 0
s 0.112000000 _5_ AGT  --- 14 cbr 1000 [0 0 0 0] ------- [5:0 5:1 32 0] [14] 0 0
r 0.112000000 _5_ AGT  --- 14 cbr 1000 [0 0 0 0] ------- [5:0 5:1 32 0] [14] 0 0
s 0.120000000 _5_ AGT  --- 15 cbr 1000 [0 0 0 0] ------- [5:0 5:1 32 0] [15] 0 0
r 0.120000000 _5_ AGT  --- 15 cbr 1000 [0 0 0 0] ------- [5:0 5:1 32 0] [15] 0 0
s 0.128000000 _5_ AGT  --- 16 cbr 1000 [0 0 0 0] ------- [5:0 5:1 32 0] [16] 0 0
r 0.128000000 _5_ AGT  --- 16 cbr 1000 [0 0 0 0] ------- [5:0 5:1 32 0] [16] 0 0
s 0.136000000 _5_ AGT  --- 17 cbr 1000 [0 0 0 0] ------- [5:0 5:1 32 0] [17] 0 0
r 0.136000000 _5_ AGT  --- 17 cbr 1000 [0 0 0 0] ------- [5:0 5:1 32 0] [17] 0 0
s 0.144000000 _5_ AGT  --- 18 cbr 1000 [0 0 0 0] ------- [5:0 5:1 32 0] [18] 0 0
r 0.144000000 _5_ AGT  --- 18 cbr 1000 [0 0 0 0] ------- [5:0 5:1 32 0] [18] 0 0
s 0.152000000 _5_ AGT  --- 19 cbr 1000 [0 0 0 0] ------- [5:0 5:1 32 0] [19] 0 0
r 0.152000000 _5_ AGT  --- 19 cbr 1000 [0 0 0 0] ------- [5:0 5:1 32 0] [19] 0 0
s 0.160000000 _5_ AGT  --- 20 cbr 1000 [0 0 0 0] ------- [5:0 5:1 32 0] [20] 0 0
r 0.160000000 _5_ AGT  --- 20 cbr 1000 [0 0 0 0] ------- [5:0 5:1 32 0] [20] 0 0
s 0.168000000 _5_ AGT  --- 21 cbr 1000 [0 0 0 0] ------- [5:0 5:1 32 0] [21] 0 0
r 0.168000000 _5_ AGT  --- 21 cbr 1000 [0 0 0 0] ------- [5:0 5:1 32 0] [21] 0 0
s 0.176000000 _5_ AGT  --- 22 cbr 1000 [0 0 0 0] ------- [5:0 5:1 32 0] [22] 0 0
r 0.176000000 _5_ AGT  --- 22 cbr 1000 [0 0 0 0] ------- [5:0 5:1 32 0] [22] 0 0
s 0.184000000 _5_ AGT  --- 23 cbr 1000 [0 0 0 0] ------- [5:0 5:1 32 0] [23] 0 0
r 0.184000000 _5_ AGT  --- 23 cbr 1000 [0 0 0 0] ------- [5:0 5:1 32 0] [23] 0 0
s 0.192000000 _5_ AGT  --- 24 cbr 1000 [0 0 0 0] ------- [5:0 5:1 32 0] [24] 0 0
r 0.192000000 _5_ AGT  --- 24 cbr 1000 [0 0 0 0] ------- [5:0 5:1 32 0] [24] 0 0
s 0.200000000 _5_ AGT  --- 25 cbr 1000 [0 0 0 0] ------- [5:0 5:1 32 0] [25] 0 0
r 0.200000000 _5_ AGT  --- 25 cbr 1000 [0 0 0 0] ------- [5:0 5:1 32 0] [25] 0 0
s 0.208000000 _5_ AGT  --- 26 cbr 1000 [0 0 0 0] ------- [5:0 5:1 32 0] [26] 0 0
r 0.208000000 _5_ AGT  --- 26 cbr 1000 [0 0 0 0] ------- [5:0 5:1 32 0] [26] 0 0
s 0.216000000 _5_ AGT  --- 27 cbr 1000 [0 0 0 0] ------- [5:0 5:1 32 0] [27] 0 0
r 0.216000000 _5_ AGT  --- 27 cbr 1000 [0 0 0 0] ------- [5:0 5:1 32 0] [27] 0 0
s 0.224000000 _5_ AGT  --- 28 cbr 1000 [0 0 0 0] ------- [5:0 5:1 32 0] [28] 0 0
r 0.224000000 _5_ AGT  --- 28 cbr 1000 [0 0 0 0] ------- [5:0 5:1 32 0] [28] 0 0
s 0.232000000 _5_ AGT  --- 29 cbr 1000 [0 0 0 0] ------- [5:0 5:1 32 0] [29] 0 0
r 0.232000000 _5_ AGT  --- 29 cbr 1000 [0 0 0 0] ------- [5:0 5:1 32 0] [29] 0 0
s 0.240000000 _5_ AGT  --- 30 cbr 1000 [0 0 0 0] ------- [5:0 5:1 32 0] [30] 0 0
r 0.240000000 _5_ AGT  --- 30 cbr 1000 [0 0 0 0] ------- [5:0 5:1 32 0] [30] 0 0
s 0.248000000 _5_ AGT  --- 31 cbr 1000 [0 0 0 0] ------- [5:0 5:1 32 0] [31] 0 0
r 0.248000000 _5_ AGT  --- 31 cbr 1000 [0 0 0 0] ------- [5:0 5:1 32 0] [31] 0 0
s 0.256000000 _5_ AGT  --- 32 cbr 1000 [0 0 0 0] ------- [5:0 5:1 32 0] [32] 0 0
r 0.256000000 _5_ AGT  --- 32 cbr 1000 [0 0 0 0] ------- [5:0 5:1 32 0] [32] 0 0
s 0.264000000 _5_ AGT  --- 33 cbr 1000 [0 0 0 0] ------- [5:0 5:1 32 0] [33] 0 0
r 0.264000000 _5_ AGT  --- 33 cbr 1000 [0 0 0 0] ------- [5:0 5:1 32 0] [33] 0 0
s 0.272000000 _5_ AGT  --- 34 cbr 1000 [0 0 0 0] ------- [5:0 5:1 32 0] [34] 0 0
r 0.272000000 _5_ AGT  --- 34 cbr 1000 [0 0 0 0] ------- [5:0 5:1 32 0] [34] 0 0
s 0.280000000 _5_ AGT  --- 35 cbr 1000 [0 0 0 0] ------- [5:0 5:1 32 0] [35] 0 0
r 0.280000000 _5_ AGT  --- 35 cbr 1000 [0 0 0 0] ------- [5:0 5:1 32 0] [35] 0 0
s 0.288000000 _5_ AGT  --- 36 cbr 1000 [0 0 0 0] ------- [5:0 5:1 32 0] [36] 0 0
r 0.288000000 _5_ AGT  --- 36 cbr 1000 [0 0 0 0] ------- [5:0 5:1 32 0] [36] 0 0
s 0.296000000 _5_ AGT  --- 37 cbr 1000 [0 0 0 0] ------- [5:0 5:1 32 0] [37] 0 0
r 0.296000000 _5_ AGT  --- 37 cbr 1000 [0 0 0 0] ------- [5:0 5:1 32 0] [37] 0 0
s 0.304000000 _5_ AGT  --- 38 cbr 1000 [0 0 0 0] ------- [5:0 5:1 32 0] [38] 0 0
r 0.304000000 _5_ AGT  --- 38 cbr 1000 [0 0 0 0] ------- [5:0 5:1 32 0] [38] 0 0
s 0.312000000 _5_ AGT  --- 39 cbr 1000 [0 0 0 0] ------- [5:0 5:1 32 0] [39] 0 0
r 0.312000000 _5_ AGT  --- 39 cbr 1000 [0 0 0 0] ------- [5:0 5:1 32 0] [39] 0 0
s 0.320000000 _5_ AGT  --- 40 cbr 1000 [0 0 0 0] ------- [5:0 5:1 32 0] [40] 0 0
r 0.320000000 _5_ AGT  --- 40 cbr 1000 [0 0 0 0] ------- [5:0 5:1 32 0] [40] 0 0
s 0.328000000 _5_ AGT  --- 41 cbr 1000 [0 0 0 0] ------- [5:0 5:1 32 0] [41] 0 0
r 0.328000000 _5_ AGT  --- 41 cbr 1000 [0 0 0 0] ------- [5:0 5:1 32 0] [41] 0 0
s 0.336000000 _5_ AGT  --- 42 cbr 1000 [0 0 0 0] ------- [5:0 5:1 32 0] [42] 0 0
r 0.336000000 _5_ AGT  --- 42 cbr 1000 [0 0 0 0] ------- [5:0 5:1 32 0] [42] 0 0
s 0.344000000 _5_ AGT  --- 43 cbr 1000 [0 0 0 0] ------- [5:0 5:1 32 0] [43] 0 0
r 0.344000000 _5_ AGT  --- 43 cbr 1000 [0 0 0 0] ------- [5:0 5:1 32 0] [43] 0 0
s 0.352000000 _5_ AGT  --- 44 cbr 1000 [0 0 0 0] ------- [5:0 5:1 32 0] [44] 0 0
r 0.352000000 _5_ AGT  --- 44 cbr 1000 [0 0 0 0] ------- [5:0 5:1 32 0] [44] 0 0
s 0.360000000 _5_ AGT  --- 45 cbr 1000 [0 0 0 0] ------- [5:0 5:1 32 0] [45] 0 0
r 0.360000000 _5_ AGT  --- 45 cbr 1000 [0 0 0 0] ------- [5:0 5:1 32 0] [45] 0 0
s 0.368000000 _5_ AGT  --- 46 cbr 1000 [0 0 0 0] ------- [5:0 5:1 32 0] [46] 0 0
r 0.368000000 _5_ AGT  --- 46 cbr 1000 [0 0 0 0] ------- [5:0 5:1 32 0] [46] 0 0
s 0.376000000 _5_ AGT  --- 47 cbr 1000 [0 0 0 0] ------- [5:0 5:1 32 0] [47] 0 0
r 0.376000000 _5_ AGT  --- 47 cbr 1000 [0 0 0 0] ------- [5:0 5:1 32 0] [47] 0 0
s 0.384000000 _5_ AGT  --- 48 cbr 1000 [0 0 0 0] ------- [5:0 5:1 32 0] [48] 0 0
r 0.384000000 _5_ AGT  --- 48 cbr 1000 [0 0 0 0] ------- [5:0 5:1 32 0] [48] 0 0
s 0.392000000 _5_ AGT  --- 49 cbr 1000 [0 0 0 0] ------- [5:0 5:1 32 0] [49] 0 0
r 0.392000000 _5_ AGT  --- 49 cbr 1000 [0 0 0 0] ------- [5:0 5:1 32 0] [49] 0 0
s 0.400000000 _5_ AGT  --- 50 cbr 1000 [0 0 0 0] ------- [5:0 5:1 32 0] [50] 0 0
r 0.400000000 _5_ AGT  --- 50 cbr 1000 [0 0 0 0] ------- [5:0 5:1 32 0] [50] 0 0
s 0.408000000 _5_ AGT  --- 51 cbr 1000 [0 0 0 0] ------- [5:0 5:1 32 0] [51] 0 0
r 0.408000000 _5_ AGT  --- 51 cbr 1000 [0 0 0 0] ------- [5:0 5:1 32 0] [51] 0 0
s 0.416000000 _5_ AGT  --- 52 cbr 1000 [0 0 0 0] ------- [5:0 5:1 32 0] [52] 0 0
r 0.416000000 _5_ AGT  --- 52 cbr 1000 [0 0 0 0] ------- [5:0 5:1 32 0] [52] 0 0
s 0.424000000 _5_ AGT  --- 53 cbr 1000 [0 0 0 0] ------- [5:0 5:1 32 0] [53] 0 0
r 0.424000000 _5_ AGT  --- 53 cbr 1000 [0 0 0 0] ------- [5:0 5:1 32 0] [53] 0 0
s 0.432000000 _5_ AGT  --- 54 cbr 1000 [0 0 0 0] ------- [5:0 5:1 32 0] [54] 0 0
r 0.432000000 _5_ AGT  --- 54 cbr 1000 [0 0 0 0] ------- [5:0 5:1 32 0] [54] 0 0
s 0.440000000 _5_ AGT  --- 55 cbr 1000 [0 0 0 0] ------- [5:0 5:1 32 0] [55] 0 0
r 0.440000000 _5_ AGT  --- 55 cbr 1000 [0 0 0 0] ------- [5:0 5:1 32 0] [55] 0 0
s 0.448000000 _5_ AGT  --- 56 cbr 1000 [0 0 0 0] ------- [5:0 5:1 32 0] [56] 0 0
r 0.448000000 _5_ AGT  --- 56 cbr 1000 [0 0 0 0] ------- [5:0 5:1 32 0] [56] 0 0
s 0.456000000 _5_ AGT  --- 57 cbr 1000 [0 0 0 0] ------- [5:0 5:1 32 0] [57] 0 0
r 0.456000000 _5_ AGT  --- 57 cbr 1000 [0 0 0 0] ------- [5:0 5:1 32 0] [57] 0 0
s 0.464000000 _5_ AGT  --- 58 cbr 1000 [0 0 0 0] ------- [5:0 5:1 32 0] [58] 0 0
r 0.464000000 _5_ AGT  --- 58 cbr 1000 [0 0 0 0] ------- [5:0 5:1 32 0] [58] 0 0
s 0.472000000 _5_ AGT  --- 59 cbr 1000 [0 0 0 0] ------- [5:0 5:1 32 0] [59] 0 0
r 0.472000000 _5_ AGT  --- 59 cbr 1000 [0 0 0 0] ------- [5:0 5:1 32 0] [59] 0 0
s 0.480000000 _5_ AGT  --- 60 cbr 1000 [0 0 0 0] ------- [5:0 5:1 32 0] [60] 0 0
r 0.480000000 _5_ AGT  --- 60 cbr 1000 [0 0 0 0] ------- [5:0 5:1 32 0] [60] 0 0
s 0.488000000 _5_ AGT  --- 61 cbr 1000 [0 0 0 0] ------- [5:0 5:1 32 0] [61] 0 0
r 0.488000000 _5_ AGT  --- 61 cbr 1000 [0 0 0 0] ------- [5:0 5:1 32 0] [61] 0 0
s 0.496000000 _5_ AGT  --- 62 cbr 1000 [0 0 0 0] ------- [5:0 5:1 32 0] [62] 0 0
r 0.496000000 _5_ AGT  --- 62 cbr 1000 [0 0 0 0] ------- [5:0 5:1 32 0] [62] 0 0
s 0.504000000 _5_ AGT  --- 63 cbr 1000 [0 0 0 0] ------- [5:0 5:1 32 0] [63] 0 0
r 0.504000000 _5_ AGT  --- 63 cbr 1000 [0 0 0 0] ------- [5:0 5:1 32 0] [63] 0 0
s 0.512000000 _5_ AGT  --- 64 cbr 1000 [0 0 0 0] ------- [5:0 5:1 32 0] [64] 0 0
r 0.512000000 _5_ AGT  --- 64 cbr 1000 [0 0 0 0] ------- [5:0 5:1 32 0] [64] 0 0
s 0.520000000 _5_ AGT  --- 65 cbr 1000 [0 0 0 0] ------- [5:0 5:1 32 0] [65] 0 0
r 0.520000000 _5_ AGT  --- 65 cbr 1000 [0 0 0 0] ------- [5:0 5:1 32 0] [65] 0 0
s 0.528000000 _5_ AGT  --- 66 cbr 1000 [0 0 0 0] ------- [5:0 5:1 32 0] [66] 0 0
r 0.528000000 _5_ AGT  --- 66 cbr 1000 [0 0 0 0] ------- [5:0 5:1 32 0] [66] 0 0
s 0.536000000 _5_ AGT  --- 67 cbr 1000 [0 0 0 0] ------- [5:0 5:1 32 0] [67] 0 0
r 0.536000000 _5_ AGT  --- 67 cbr 1000 [0 0 0 0] ------- [5:0 5:1 32 0] [67] 0 0
s 0.544000000 _5_ AGT  --- 68 cbr 1000 [0 0 0 0] ------- [5:0 5:1 32 0] [68] 0 0
r 0.544000000 _5_ AGT  --- 68 cbr 1000 [0 0 0 0] ------- [5:0 5:1 32 0] [68] 0 0
s 0.552000000 _5_ AGT  --- 69 cbr 1000 [0 0 0 0] ------- [5:0 5:1 32 0] [69] 0 0
r 0.552000000 _5_ AGT  --- 69 cbr 1000 [0 0 0 0] ------- [5:0 5:1 32 0] [69] 0 0
s 0.560000000 _5_ AGT  --- 70 cbr 1000 [0 0 0 0] ------- [5:0 5:1 32 0] [70] 0 0
r 0.560000000 _5_ AGT  --- 70 cbr 1000 [0 0 0 0] ------- [5:0 5:1 32 0] [70] 0 0
s 0.568000000 _5_ AGT  --- 71 cbr 1000 [0 0 0 0] ------- [5:0 5:1 32 0] [71] 0 0
r 0.568000000 _5_ AGT  --- 71 cbr 1000 [0 0 0 0] ------- [5:0 5:1 32 0] [71] 0 0
s 0.576000000 _5_ AGT  --- 72 cbr 1000 [0 0 0 0] ------- [5:0 5:1 32 0] [72] 0 0
r 0.576000000 _5_ AGT  --- 72 cbr 1000 [0 0 0 0] ------- [5:0 5:1 32 0] [72] 0 0
s 0.584000000 _5_ AGT  --- 73 cbr 1000 [0 0 0 0] ------- [5:0 5:1 32 0] [73] 0 0
r 0.584000000 _5_ AGT  --- 73 cbr 1000 [0 0 0 0] ------- [5:0 5:1 32 0] [73] 0 0
s 0.592000000 _5_ AGT  --- 74 cbr 1000 [0 0 0 0] ------- [5:0 5:1 32 0] [74] 0 0
r 0.592000000 _5_ AGT  --- 74 cbr 1000 [0 0 0 0] ------- [5:0 5:1 32 0] [74] 0 0
s 0.600000000 _5_ AGT  --- 75 cbr 1000 [0 0 0 0] ------- [5:0 5:1 32 0] [75] 0 0
r 0.600000000 _5_ AGT  --- 75 cbr 1000 [0 0 0 0] ------- [5:0 5:1 32 0] [75] 0 0
s 0.608000000 _5_ AGT  --- 76 cbr 1000 [0 0 0 0] ------- [5:0 5:1 32 0] [76] 0 0
r 0.608000000 _5_ AGT  --- 76 cbr 1000 [0 0 0 0] ------- [5:0 5:1 32 0] [76] 0 0
s 0.616000000 _5_ AGT  --- 77 cbr 1000 [0 0 0 0] ------- [5:0 5:1 32 0] [77] 0 0
r 0.616000000 _5_ AGT  --- 77 cbr 1000 [0 0 0 0] ------- [5:0 5:1 32 0] [77] 0 0
s 0.624000000 _5_ AGT  --- 78 cbr 1000 [0 0 0 0] ------- [5:0 5:1 32 0] [78] 0 0
r 0.624000000 _5_ AGT  --- 78 cbr 1000 [0 0 0 0] ------- [5:0 5:1 32 0] [78] 0 0
s 0.632000000 _5_ AGT  --- 79 cbr 1000 [0 0 0 0] ------- [5:0 5:1 32 0] [79] 0 0
r 0.632000000 _5_ AGT  --- 79 cbr 1000 [0 0 0 0] ------- [5:0 5:1 32 0] [79] 0 0
s 0.640000000 _5_ AGT  --- 80 cbr 1000 [0 0 0 0] ------- [5:0 5:1 32 0] [80] 0 0
r 0.640000000 _5_ AGT  --- 80 cbr 1000 [0 0 0 0] ------- [5:0 5:1 32 0] [80] 0 0
s 0.648000000 _5_ AGT  --- 81 cbr 1000 [0 0 0 0] ------- [5:0 5:1 32 0] [81] 0 0
r 0.648000000 _5_ AGT  --- 81 cbr 1000 [0 0 0 0] ------- [5:0 5:1 32 0] [81] 0 0
s 0.656000000 _5_ AGT  --- 82 cbr 1000 [0 0 0 0] ------- [5:0 5:1 32 0] [82] 0 0
r 0.656000000 _5_ AGT  --- 82 cbr 1000 [0 0 0 0] ------- [5:0 5:1 32 0] [82] 0 0
s 0.664000000 _5_ AGT  --- 83 cbr 1000 [0 0 0 0] ------- [5:0 5:1 32 0] [83] 0 0
r 0.664000000 _5_ AGT  --- 83 cbr 1000 [0 0 0 0] ------- [5:0 5:1 32 0] [83] 0 0
s 0.672000000 _5_ AGT  --- 84 cbr 1000 [0 0 0 0] ------- [5:0 5:1 32 0] [84] 0 0
r 0.672000000 _5_ AGT  --- 84 cbr 1000 [0 0 0 0] ------- [5:0 5:1 32 0] [84] 0 0
s 0.680000000 _5_ AGT  --- 85 cbr 1000 [0 0 0 0] ------- [5:0 5:1 32 0] [85] 0 0
r 0.680000000 _5_ AGT  --- 85 cbr 1000 [0 0 0 0] ------- [5:0 5:1 32 0] [85] 0 0
s 0.688000000 _5_ AGT  --- 86 cbr 1000 [0 0 0 0] ------- [5:0 5:1 32 0] [86] 0 0
r 0.688000000 _5_ AGT  --- 86 cbr 1000 [0 0 0 0] ------- [5:0 5:1 32 0] [86] 0 0
s 0.696000000 _5_ AGT  --- 87 cbr 1000 [0 0 0 0] ------- [5:0 5:1 32 0] [87] 0 0
r 0.696000000 _5_ AGT  --- 87 cbr 1000 [0 0 0 0] ------- [5:0 5:1 32 0] [87] 0 0
s 0.704000000 _5_ AGT  --- 88 cbr 1000 [0 0 0 0] ------- [5:0 5:1 32 0] [88] 0 0
r 0.704000000 _5_ AGT  --- 88 cbr 1000 [0 0 0 0] ------- [5:0 5:1 32 0] [88] 0 0
s 0.712000000 _5_ AGT  --- 89 cbr 1000 [0 0 0 0] ------- [5:0 5:1 32 0] [89] 0 0
r 0.712000000 _5_ AGT  --- 89 cbr 1000 [0 0 0 0] ------- [5:0 5:1 32 0] [89] 0 0
s 0.720000000 _5_ AGT  --- 90 cbr 1000 [0 0 0 0] ------- [5:0 5:1 32 0] [90] 0 0
r 0.720000000 _5_ AGT  --- 90 cbr 1000 [0 0 0 0] ------- [5:0 5:1 32 0] [90] 0 0
s 0.728000000 _5_ AGT  --- 91 cbr 1000 [0 0 0 0] ------- [5:0 5:1 32 0] [91] 0 0
r 0.728000000 _5_ AGT  --- 91 cbr 1000 [0 0 0 0] ------- [5:0 5:1 32 0] [91] 0 0
s 0.736000000 _5_ AGT  --- 92 cbr 1000 [0 0 0 0] ------- [5:0 5:1 32 0] [92] 0 0
r 0.736000000 _5_ AGT  --- 92 cbr 1000 [0 0 0 0] ------- [5:0 5:1 32 0] [92] 0 0
s 0.744000000 _5_ AGT  --- 93 cbr 1000 [0 0 0 0] ------- [5:0 5:1 32 0] [93] 0 0
r 0.744000000 _5_ AGT  --- 93 cbr 1000 [0 0 0 0] ------- [5:0 5:1 32 0] [93] 0 0
s 0.752000000 _5_ AGT  --- 94 cbr 1000 [0 0 0 0] ------- [5:0 5:1 32 0] [94] 0 0
r 0.752000000 _5_ AGT  --- 94 cbr 1000 [0 0 0 0] ------- [5:0 5:1 32 0] [94] 0 0
s 0.760000000 _5_ AGT  --- 95 cbr 1000 [0 0 0 0] ------- [5:0 5:1 32 0] [95] 0 0
r 0.760000000 _5_ AGT  --- 95 cbr 1000 [0 0 0 0] ------- [5:0 5:1 32 0] [95] 0 0
s 0.768000000 _5_ AGT  --- 96 cbr 1000 [0 0 0 0] ------- [5:0 5:1 32 0] [96] 0 0
r 0.768000000 _5_ AGT  --- 96 cbr 1000 [0 0 0 0] ------- [5:0 5:1 32 0] [96] 0 0
s 0.776000000 _5_ AGT  --- 97 cbr 1000 [0 0 0 0] ------- [5:0 5:1 32 0] [97] 0 0
r 0.776000000 _5_ AGT  --- 97 cbr 1000 [0 0 0 0] ------- [5:0 5:1 32 0] [97] 0 0
s 0.784000000 _5_ AGT  --- 98 cbr 1000 [0 0 0 0] ------- [5:0 5:1 32 0] [98] 0 0
r 0.784000000 _5_ AGT  --- 98 cbr 1000 [0 0 0 0] ------- [5:0 5:1 32 0] [98] 0 0
s 0.792000000 _5_ AGT  --- 99 cbr 1000 [0 0 0 0] ------- [5:0 5:1 32 0] [99] 0 0
r 0.792000000 _5_ AGT  --- 99 cbr 1000 [0 0 0 0] ------- [5:0 5:1 32 0] [99] 0 0
s 0.800000000 _5_ AGT  --- 100 cbr 1000 [0 0 0 0] ------- [5:0 5:1 32 0] [100] 0 0
r 0.800000000 _5_ AGT  --- 100 cbr 1000 [0 0 0 0] ------- [5:0 5:1 32 0] [100] 0 0
s 0.808000000 _5_ AGT  --- 101 cbr 1000 [0 0 0 0] ------- [5:0 5:1 32 0] [101] 0 0
r 0.808000000 _5_ AGT  --- 101 cbr 1000 [0 0 0 0] ------- [5:0 5:1 32 0] [101] 0 0
s 0.816000000 _5_ AGT  --- 102 cbr 1000 [0 0 0 0] ------- [5:0 5:1 32 0] [102] 0 0
r 0.816000000 _5_ AGT  --- 102 cbr 1000 [0 0 0 0] ------- [5:0 5:1 32 0] [102] 0 0
s 0.824000000 _5_ AGT  --- 103 cbr 1000 [0 0 0 0] ------- [5:0 5:1 32 0] [103] 0 0
r 0.824000000 _5_ AGT  --- 103 cbr 1000 [0 0 0 0] ------- [5:0 5:1 32 0] [103] 0 0
s 0.832000000 _5_ AGT  --- 104 cbr 1000 [0 0 0 0] ------- [5:0 5:1 32 0] [104] 0 0
r 0.832000000 _5_ AGT  --- 104 cbr 1000 [0 0 0 0] ------- [5:0 5:1 32 0] [104] 0 0
s 0.840000000 _5_ AGT  --- 105 cbr 1000 [0 0 0 0] ------- [5:0 5:1 32 0] [105] 0 0
r 0.840000000 _5_ AGT  --- 105 cbr 1000 [0 0 0 0] ------- [5:0 5:1 32 0] [105] 0 0
s 0.848000000 _5_ AGT  --- 106 cbr 1000 [0 0 0 0] ------- [5:0 5:1 32 0] [106] 0 0
r 0.848000000 _5_ AGT  --- 106 cbr 1000 [0 0 0 0] ------- [5:0 5:1 32 0] [106] 0 0
s 0.856000000 _5_ AGT  --- 107 cbr 1000 [0 0 0 0] ------- [5:0 5:1 32 0] [107] 0 0
r 0.856000000 _5_ AGT  --- 107 cbr 1000 [0 0 0 0] ------- [5:0 5:1 32 0] [107] 0 0
s 0.864000000 _5_ AGT  --- 108 cbr 1000 [0 0 0 0] ------- [5:0 5:1 32 0] [108] 0 0
r 0.864000000 _5_ AGT  --- 108 cbr 1000 [0 0 0 0] ------- [5:0 5:1 32 0] [108] 0 0
s 0.872000000 _5_ AGT  --- 109 cbr 1000 [0 0 0 0] ------- [5:0 5:1 32 0] [109] 0 0
r 0.872000000 _5_ AGT  --- 109 cbr 1000 [0 0 0 0] ------- [5:0 5:1 32 0] [109] 0 0
s 0.880000000 _5_ AGT  --- 110 cbr 1000 [0 0 0 0] ------- [5:0 5:1 32 0] [110] 0 0
r 0.880000000 _5_ AGT  --- 110 cbr 1000 [0 0 0 0] ------- [5:0 5:1 32 0] [110] 0 0
s 0.888000000 _5_ AGT  --- 111 cbr 1000 [0 0 0 0] ------- [5:0 5:1 32 0] [111] 0 0
r 0.888000000 _5_ AGT  --- 111 cbr 1000 [0 0 0 0] ------- [5:0 5:1 32 0] [111] 0 0
s 0.896000000 _5_ AGT  --- 112 cbr 1000 [0 0 0 0] ------- [5:0 5:1 32 0] [112] 0 0
r 0.896000000 _5_ AGT  --- 112 cbr 1000 [0 0 0 0] ------- [5:0 5:1 32 0] [112] 0 0
s 0.904000000 _5_ AGT  --- 113 cbr 1000 [0 0 0 0] ------- [5:0 5:1 32 0] [113] 0 0
r 0.904000000 _5_ AGT  --- 113 cbr 1000 [0 0 0 0] ------- [5:0 5:1 32 0] [113] 0 0
s 0.912000000 _5_ AGT  --- 114 cbr 1000 [0 0 0 0] ------- [5:0 5:1 32 0] [114] 0 0
r 0.912000000 _5_ AGT  --- 114 cbr 1000 [0 0 0 0] ------- [5:0 5:1 32 0] [114] 0 0
s 0.920000000 _5_ AGT  --- 115 cbr 1000 [0 0 0 0] ------- [5:0 5:1 32 0] [115] 0 0
r 0.920000000 _5_ AGT  --- 115 cbr 1000 [0 0 0 0] ------- [5:0 5:1 32 0] [115] 0 0
s 0.928000000 _5_ AGT  --- 116 cbr 1000 [0 0 0 0] ------- [5:0 5:1 32 0] [116] 0 0
r 0.928000000 _5_ AGT  --- 116 cbr 1000 [0 0 0 0] ------- [5:0 5:1 32 0] [116] 0 0
s 0.936000000 _5_ AGT  --- 117 cbr 1000 [0 0 0 0] ------- [5:0 5:1 32 0] [117] 0 0
r 0.936000000 _5_ AGT  --- 117 cbr 1000 [0 0 0 0] ------- [5:0 5:1 32 0] [117] 0 0
s 0.944000000 _5_ AGT  --- 118 cbr 1000 [0 0 0 0] ------- [5:0 5:1 32 0] [118] 0 0
r 0.944000000 _5_ AGT  --- 118 cbr 1000 [0 0 0 0] ------- [5:0 5:1 32 0] [118] 0 0
s 0.952000000 _5_ AGT  --- 119 cbr 1000 [0 0 0 0] ------- [5:0 5:1 32 0] [119] 0 0
r 0.952000000 _5_ AGT  --- 119 cbr 1000 [0 0 0 0] ------- [5:0 5:1 32 0] [119] 0 0
s 0.960000000 _5_ AGT  --- 120 cbr 1000 [0 0 0 0] ------- [5:0 5:1 32 0] [120] 0 0
r 0.960000000 _5_ AGT  --- 120 cbr 1000 [0 0 0 0] ------- [5:0 5:1 32 0] [120] 0 0
s 0.968000000 _5_ AGT  --- 121 cbr 1000 [0 0 0 0] ------- [5:0 5:1 32 0] [121] 0 0
r 0.968000000 _5_ AGT  --- 121 cbr 1000 [0 0 0 0] ------- [5:0 5:1 32 0] [121] 0 0
s 0.976000000 _5_ AGT  --- 122 cbr 1000 [0 0 0 0] ------- [5:0 5:1 32 0] [122] 0 0
r 0.976000000 _5_ AGT  --- 122 cbr 1000 [0 0 0 0] ------- [5:0 5:1 32 0] [122] 0 0
s 0.984000000 _5_ AGT  --- 123 cbr 1000 [0 0 0 0] ------- [5:0 5:1 32 0] [123] 0 0
r 0.984000000 _5_ AGT  --- 123 cbr 1000 [0 0 0 0] ------- [5:0 5:1 32 0] [123] 0 0
s 0.992000000 _5_ AGT  --- 124 cbr 1000 [0 0 0 0] ------- [5:0 5:1 32 0] [124] 0 0
r 0.992000000 _5_ AGT  --- 124 cbr 1000 [0 0 0 0] ------- [5:0 5:1 32 0] [124] 0 0
s 1.000000000 _5_ AGT  --- 125 cbr 1000 [0 0 0 0] ------- [5:0 5:1 32 0] [125] 0 0
r 1.000000000 _5_ AGT  --- 125 cbr 1000 [0 0 0 0] ------- [5:0 5:1 32 0] [125] 0 0
s 1.008000000 _5_ AGT  --- 126 cbr 1000 [0 0 0 0] ------- [5:0 5:1 32 0] [126] 0 0
r 1.008000000 _5_ AGT  --- 126 cbr 1000 [0 0 0 0] ------- [5:0 5:1 32 0] [126] 0 0
s 1.016000000 _5_ AGT  --- 127 cbr 1000 [0 0 0 0] ------- [5:0 5:1 32 0] [127] 0 0
r 1.016000000 _5_ AGT  --- 127 cbr 1000 [0 0 0 0] ------- [5:0 5:1 32 0] [127] 0 0
s 1.024000000 _5_ AGT  --- 128 cbr 1000 [0 0 0 0] ------- [5:0 5:1 32 0] [128] 0 0
r 1.024000000 _5_ AGT  --- 128 cbr 1000 [0 0 0 0] ------- [5:0 5:1 32 0] [128] 0 0
s 1.032000000 _5_ AGT  --- 129 cbr 1000 [0 0 0 0] ------- [5:0 5:1 32 0] [129] 0 0
r 1.032000000 _5_ AGT  --- 129 cbr 1000 [0 0 0 0] ------- [5:0 5:1 32 0] [129] 0 0
s 1.040000000 _5_ AGT  --- 130 cbr 1000 [0 0 0 0] ------- [5:0 5:1 32 0] [130] 0 0
r 1.040000000 _5_ AGT  --- 130 cbr 1000 [0 0 0 0] ------- [5:0 5:1 32 0] [130] 0 0
s 1.048000000 _5_ AGT  --- 131 cbr 1000 [0 0 0 0] ------- [5:0 5:1 32 0] [131] 0 0
r 1.048000000 _5_ AGT  --- 131 cbr 1000 [0 0 0 0] ------- [5:0 5:1 32 0] [131] 0 0
s 1.056000000 _5_ AGT  --- 132 cbr 1000 [0 0 0 0] ------- [5:0 5:1 32 0] [132] 0 0
r 1.056000000 _5_ AGT  --- 132 cbr 1000 [0 0 0 0] ------- [5:0 5:1 32 0] [132] 0 0
s 1.064000000 _5_ AGT  --- 133 cbr 1000 [0 0 0 0] ------- [5:0 5:1 32 0] [133] 0 0
r 1.064000000 _5_ AGT  --- 133 cbr 1000 [0 0 0 0] ------- [5:0 5:1 32 0] [133] 0 0
s 1.072000000 _5_ AGT  --- 134 cbr 1000 [0 0 0 0] ------- [5:0 5:1 32 0] [134] 0 0
r 1.072000000 _5_ AGT  --- 134 cbr 1000 [0 0 0 0] ------- [5:0 5:1 32 0] [134] 0 0
s 1.080000000 _5_ AGT  --- 135 cbr 1000 [0 0 0 0] ------- [5:0 5:1 32 0] [135] 0 0
r 1.080000000 _5_ AGT  --- 135 cbr 1000 [0 0 0 0] ------- [5:0 5:1 32 0] [135] 0 0
s 1.088000000 _5_ AGT  --- 136 cbr 1000 [0 0 0 0] ------- [5:0 5:1 32 0] [136] 0 0
r 1.088000000 _5_ AGT  --- 136 cbr 1000 [0 0 0 0] ------- [5:0 5:1 32 0] [136] 0 0
s 1.096000000 _5_ AGT  --- 137 cbr 1000 [0 0 0 0] ------- [5:0 5:1 32 0] [137] 0 0
r 1.096000000 _5_ AGT  --- 137 cbr 1000 [0 0 0 0] ------- [5:0 5:1 32 0] [137] 0 0
s 1.104000000 _5_ AGT  --- 138 cbr 1000 [0 0 0 0] ------- [5:0 5:1 32 0] [138] 0 0
r 1.104000000 _5_ AGT  --- 138 cbr 1000 [0 0 0 0] ------- [5:0 5:1 32 0] [138] 0 0
s 1.112000000 _5_ AGT  --- 139 cbr 1000 [0 0 0 0] ------- [5:0 5:1 32 0] [139] 0 0
r 1.112000000 _5_ AGT  --- 139 cbr 1000 [0 0 0 0] ------- [5:0 5:1 32 0] [139] 0 0
s 1.120000000 _5_ AGT  --- 140 cbr 1000 [0 0 0 0] ------- [5:0 5:1 32 0] [140] 0 0
r 1.120000000 _5_ AGT  --- 140 cbr 1000 [0 0 0 0] ------- [5:0 5:1 32 0] [140] 0 0
s 1.128000000 _5_ AGT  --- 141 cbr 1000 [0 0 0 0] ------- [5:0 5:1 32 0] [141] 0 0
r 1.128000000 _5_ AGT  --- 141 cbr 1000 [0 0 0 0] ------- [5:0 5:1 32 0] [141] 0 0
s 1.136000000 _5_ AGT  --- 142 cbr 1000 [0 0 0 0] ------- [5:0 5:1 32 0] [142] 0 0
r 1.136000000 _5_ AGT  --- 142 cbr 1000 [0 0 0 0] ------- [5:0 5:1 32 0] [142] 0 0
s 1.144000000 _5_ AGT  --- 143 cbr 1000 [0 0 0 0] ------- [5:0 5:1 32 0] [143] 0 0
r 1.144000000 _5_ AGT  --- 143 cbr 1000 [0 0 0 0] ------- [5:0 5:1 32 0] [143] 0 0
s 1.152000000 _5_ AGT  --- 144 cbr 1000 [0 0 0 0] ------- [5:0 5:1 32 0] [144] 0 0
r 1.152000000 _5_ AGT  --- 144 cbr 1000 [0 0 0 0] ------- [5:0 5:1 32 0] [144] 0 0
s 1.160000000 _5_ AGT  --- 145 cbr 1000 [0 0 0 0] ------- [5:0 5:1 32 0] [145] 0 0
r 1.160000000 _5_ AGT  --- 145 cbr 1000 [0 0 0 0] ------- [5:0 5:1 32 0] [145] 0 0
s 1.168000000 _5_ AGT  --- 146 cbr 1000 [0 0 0 0] ------- [5:0 5:1 32 0] [146] 0 0
r 1.168000000 _5_ AGT  --- 146 cbr 1000 [0 0 0 0] ------- [5:0 5:1 32 0] [146] 0 0
s 1.176000000 _5_ AGT  --- 147 cbr 1000 [0 0 0 0] ------- [5:0 5:1 32 0] [147] 0 0
r 1.176000000 _5_ AGT  --- 147 cbr 1000 [0 0 0 0] ------- [5:0 5:1 32 0] [147] 0 0
s 1.184000000 _5_ AGT  --- 148 cbr 1000 [0 0 0 0] ------- [5:0 5:1 32 0] [148] 0 0
r 1.184000000 _5_ AGT  --- 148 cbr 1000 [0 0 0 0] ------- [5:0 5:1 32 0] [148] 0 0
s 1.192000000 _5_ AGT  --- 149 cbr 1000 [0 0 0 0] ------- [5:0 5:1 32 0] [149] 0 0
r 1.192000000 _5_ AGT  --- 149 cbr 1000 [0 0 0 0] ------- [5:0 5:1 32 0] [149] 0 0
s 1.200000000 _5_ AGT  --- 150 cbr 1000 [0 0 0 0] ------- [5:0 5:1 32 0] [150] 0 0
r 1.200000000 _5_ AGT  --- 150 cbr 1000 [0 0 0 0] ------- [5:0 5:1 32 0] [150] 0 0
s 1.208000000 _5_ AGT  --- 151 cbr 1000 [0 0 0 0] ------- [5:0 5:1 32 0] [151] 0 0
r 1.208000000 _5_ AGT  --- 151 cbr 1000 [0 0 0 0] ------- [5:0 5:1 32 0] [151] 0 0
s 1.216000000 _5_ AGT  --- 152 cbr 1000 [0 0 0 0] ------- [5:0 5:1 32 0] [152] 0 0
r 1.216000000 _5_ AGT  --- 152 cbr 1000 [0 0 0 0] ------- [5:0 5:1 32 0] [152] 0 0
s 1.224000000 _5_ AGT  --- 153 cbr 1000 [0 0 0 0] ------- [5:0 5:1 32 0] [153] 0 0
r 1.224000000 _5_ AGT  --- 153 cbr 1000 [0 0 0 0] ------- [5:0 5:1 32 0] [153] 0 0
s 1.232000000 _5_ AGT  --- 154 cbr 1000 [0 0 0 0] ------- [5:0 5:1 32 0] [154] 0 0
r 1.232000000 _5_ AGT  --- 154 cbr 1000 [0 0 0 0] ------- [5:0 5:1 32 0] [154] 0 0
s 1.240000000 _5_ AGT  --- 155 cbr 1000 [0 0 0 0] ------- [5:0 5:1 32 0] [155] 0 0
r 1.240000000 _5_ AGT  --- 155 cbr 1000 [0 0 0 0] ------- [5:0 5:1 32 0] [155] 0 0
s 1.248000000 _5_ AGT  --- 156 cbr 1000 [0 0 0 0] ------- [5:0 5:1 32 0] [156] 0 0
r 1.248000000 _5_ AGT  --- 156 cbr 1000 [0 0 0 0] ------- [5:0 5:1 32 0] [156] 0 0
s 1.256000000 _5_ AGT  --- 157 cbr 1000 [0 0 0 0] ------- [5:0 5:1 32 0] [157] 0 0
r 1.256000000 _5_ AGT  --- 157 cbr 1000 [0 0 0 0] ------- [5:0 5:1 32 0] [157] 0 0
s 1.264000000 _5_ AGT  --- 158 cbr 1000 [0 0 0 0] ------- [5:0 5:1 32 0] [158] 0 0
r 1.264000000 _5_ AGT  --- 158 cbr 1000 [0 0 0 0] ------- [5:0 5:1 32 0] [158] 0 0
s 1.272000000 _5_ AGT  --- 159 cbr 1000 [0 0 0 0] ------- [5:0 5:1 32 0] [159] 0 0
r 1.272000000 _5_ AGT  --- 159 cbr 1000 [0 0 0 0] ------- [5:0 5:1 32 0] [159] 0 0
s 1.280000000 _5_ AGT  --- 160 cbr 1000 [0 0 0 0] ------- [5:0 5:1 32 0] [160] 0 0
r 1.280000000 _5_ AGT  --- 160 cbr 1000 [0 0 0 0] ------- [5:0 5:1 32 0] [160] 0 0
s 1.288000000 _5_ AGT  --- 161 cbr 1000 [0 0 0 0] ------- [5:0 5:1 32 0] [161] 0 0
r 1.288000000 _5_ AGT  --- 161 cbr 1000 [0 0 0 0] ------- [5:0 5:1 32 0] [161] 0 0
s 1.296000000 _5_ AGT  --- 162 cbr 1000 [0 0 0 0] ------- [5:0 5:1 32 0] [162] 0 0
r 1.296000000 _5_ AGT  --- 162 cbr 1000 [0 0 0 0] ------- [5:0 5:1 32 0] [162] 0 0
s 1.304000000 _5_ AGT  --- 163 cbr 1000 [0 0 0 0] ------- [5:0 5:1 32 0] [163] 0 0
r 1.304000000 _5_ AGT  --- 163 cbr 1000 [0 0 0 0] ------- [5:0 5:1 32 0] [163] 0 0
s 1.312000000 _5_ AGT  --- 164 cbr 1000 [0 0 0 0] ------- [5:0 5:1 32 0] [164] 0 0
r 1.312000000 _5_ AGT  --- 164 cbr 1000 [0 0 0 0] ------- [5:0 5:1 32 0] [164] 0 0
s 1.320000000 _5_ AGT  --- 165 cbr 1000 [0 0 0 0] ------- [5:0 5:1 32 0] [165] 0 0
r 1.320000000 _5_ AGT  --- 165 cbr 1000 [0 0 0 0] ------- [5:0 5:1 32 0] [165] 0 0
s 1.328000000 _5_ AGT  --- 166 cbr 1000 [0 0 0 0] ------- [5:0 5:1 32 0] [166] 0 0
r 1.328000000 _5_ AGT  --- 166 cbr 1000 [0 0 0 0] ------- [5:0 5:1 32 0] [166] 0 0
s 1.336000000 _5_ AGT  --- 167 cbr 1000 [0 0 0 0] ------- [5:0 5:1 32 0] [167] 0 0
r 1.336000000 _5_ AGT  --- 167 cbr 1000 [0 0 0 0] ------- [5:0 5:1 32 0] [167] 0 0
s 1.344000000 _5_ AGT  --- 168 cbr 1000 [0 0 0 0] ------- [5:0 5:1 32 0] [168] 0 0
r 1.344000000 _5_ AGT  --- 168 cbr 1000 [0 0 0 0] ------- [5:0 5:1 32 0] [168] 0 0
s 1.352000000 _5_ AGT  --- 169 cbr 1000 [0 0 0 0] ------- [5:0 5:1 32 0] [169] 0 0
r 1.352000000 _5_ AGT  --- 169 cbr 1000 [0 0 0 0] ------- [5:0 5:1 32 0] [169] 0 0
s 1.360000000 _5_ AGT  --- 170 cbr 1000 [0 0 0 0] ------- [5:0 5:1 32 0] [170] 0 0
r 1.360000000 _5_ AGT  --- 170 cbr 1000 [0 0 0 0] ------- [5:0 5:1 32 0] [170] 0 0
s 1.368000000 _5_ AGT  --- 171 cbr 1000 [0 0 0 0] ------- [5:0 5:1 32 0] [171] 0 0
r 1.368000000 _5_ AGT  --- 171 cbr 1000 [0 0 0 0] ------- [5:0 5:1 32 0] [171] 0 0
s 1.376000000 _5_ AGT  --- 172 cbr 1000 [0 0 0 0] ------- [5:0 5:1 32 0] [172] 0 0
r 1.376000000 _5_ AGT  --- 172 cbr 1000 [0 0 0 0] ------- [5:0 5:1 32 0] [172] 0 0
s 1.384000000 _5_ AGT  --- 173 cbr 1000 [0 0 0 0] ------- [5:0 5:1 32 0] [173] 0 0
r 1.384000000 _5_ AGT  --- 173 cbr 1000 [0 0 0 0] ------- [5:0 5:1 32 0] [173] 0 0
s 1.392000000 _5_ AGT  --- 174 cbr 1000 [0 0 0 0] ------- [5:0 5:1 32 0] [174] 0 0
r 1.392000000 _5_ AGT  --- 174 cbr 1000 [0 0 0 0] ------- [5:0 5:1 32 0] [174] 0 0
s 1.400000000 _5_ AGT  --- 175 cbr 1000 [0 0 0 0] ------- [5:0 5:1 32 0] [175] 0 0
r 1.400000000 _5_ AGT  --- 175 cbr 1000 [0 0 0 0] ------- [5:0 5:1 32 0] [175] 0 0
s 1.408000000 _5_ AGT  --- 176 cbr 1000 [0 0 0 0] ------- [5:0 5:1 32 0] [176] 0 0
r 1.408000000 _5_ AGT  --- 176 cbr 1000 [0 0 0 0] ------- [5:0 5:1 32 0] [176] 0 0
s 1.416000000 _5_ AGT  --- 177 cbr 1000 [0 0 0 0] ------- [5:0 5:1 32 0] [177] 0 0
r 1.416000000 _5_ AGT  --- 177 cbr 1000 [0 0 0 0] ------- [5:0 5:1 32 0] [177] 0 0
s 1.424000000 _5_ AGT  --- 178 cbr 1000 [0 0 0 0] ------- [5:0 5:1 32 0] [178] 0 0
r 1.424000000 _5_ AGT  --- 178 cbr 1000 [0 0 0 0] ------- [5:0 5:1 32 0] [178] 0 0
s 1.432000000 _5_ AGT  --- 179 cbr 1000 [0 0 0 0] ------- [5:0 5:1 32 0] [179] 0 0
r 1.432000000 _5_ AGT  --- 179 cbr 1000 [0 0 0 0] ------- [5:0 5:1 32 0] [179] 0 0
s 1.440000000 _5_ AGT  --- 180 cbr 1000 [0 0 0 0] ------- [5:0 5:1 32 0] [180] 0 0
r 1.440000000 _5_ AGT  --- 180 cbr 1000 [0 0 0 0] ------- [5:0 5:1 32 0] [180] 0 0
s 1.448000000 _5_ AGT  --- 181 cbr 1000 [0 0 0 0] ------- [5:0 5:1 32 0] [181] 0 0
r 1.448000000 _5_ AGT  --- 181 cbr 1000 [0 0 0 0] ------- [5:0 5:1 32 0] [181] 0 0
s 1.456000000 _5_ AGT  --- 182 cbr 1000 [0 0 0 0] ------- [5:0 5:1 32 0] [182] 0 0
r 1.456000000 _5_ AGT  --- 182 cbr 1000 [0 0 0 0] ------- [5:0 5:1 32 0] [182] 0 0