s 0.000000000 _5_ AGT  --- 0 cbr 1000 [0 0 0 0] ------- [5:0 5:1 32 0] [0] 0 0
r 0.000000000 _5_ AGT  --- 0 cbr 1000 [0 0 0 0] ------- [5:0 5:1 32 0] [0] 0 0
s 0.000000000 _6_ AGT  --- 1 cbr 1000 [0 0 0 0] ------- [6:0 6:1 32 0] [0] 0 0
r 0.000000000 _6_ AGT  --- 1 cbr 1000 [0 0 0 0] ------- [6:0 6:1 32 0] [0] 0 0
s 0.000000000 _4_ AGT  --- 2 cbr 1000 [0 0 0 0] ------- [4:0 0:0 32 0] [0] 0 0
r 0.000000000 _4_ RTR  --- 2 cbr 1000 [0 0 0 0] ------- [4:0 0:0 32 0] [0] 0 0
s 0.000000000 _4_ RTR  --- 0 AODV 48 [0 0 0 0] ------- [4:255 -1:255 30 0] [0x2 1 1 [0 0] [4 4]] (REQUEST)
s 0.000535000 _4_ MAC  --- 0 AODV 106 [0 ffffffff 4 800] ------- [4:255 -1:255 30 0] [0x2 1 1 [0 0] [4 4]] (REQUEST)
r 0.001383603 _9_ MAC  --- 0 AODV 48 [0 ffffffff 4 800] ------- [4:255 -1:255 30 0] [0x2 1 1 [0 0] [4 4]] (REQUEST)
r 0.001408603 _9_ RTR  --- 0 AODV 48 [0 ffffffff 4 800] ------- [4:255 -1:255 30 0] [0x2 1 1 [0 0] [4 4]] (REQUEST)
s 0.001550650 _9_ RTR  --- 0 AODV 48 [0 ffffffff 4 800] ------- [9:255 -1:255 29 0] [0x2 2 1 [0 0] [4 4]] (REQUEST)
s 0.001925650 _9_ MAC  --- 0 AODV 106 [0 ffffffff 9 800] ------- [9:255 -1:255 29 0] [0x2 2 1 [0 0] [4 4]] (REQUEST)
r 0.002774253 _4_ MAC  --- 0 AODV 48 [0 ffffffff 9 800] ------- [9:255 -1:255 29 0] [0x2 2 1 [0 0] [4 4]] (REQUEST)
r 0.002774411 _2_ MAC  --- 0 AODV 48 [0 ffffffff 9 800] ------- [9:255 -1:255 29 0] [0x2 2 1 [0 0] [4 4]] (REQUEST)
r 0.002774481 _0_ MAC  --- 0 AODV 48 [0 ffffffff 9 800] ------- [9:255 -1:255 29 0] [0x2 2 1 [0 0] [4 4]] (REQUEST)
r 0.002799253 _4_ RTR  --- 0 AODV 48 [0 ffffffff 9 800] ------- [9:255 -1:255 29 0] [0x2 2 1 [0 0] [4 4]] (REQUEST)
r 0.002799411 _2_ RTR  --- 0 AODV 48 [0 ffffffff 9 800] ------- [9:255 -1:255 29 0] [0x2 2 1 [0 0] [4 4]] (REQUEST)
r 0.002799481 _0_ RTR  --- 0 AODV 48 [0 ffffffff 9 800] ------- [9:255 -1:255 29 0] [0x2 2 1 [0 0] [4 4]] (REQUEST)
s 0.002799481 _0_ RTR  --- 0 AODV 44 [0 0 0 0] ------- [0:255 4:255 30 9] [0x4 1 [0 4] 10.000000] (REPLY)
s 0.003014481 _0_ MAC  --- 0 ARP 86 [0 ffffffff 0 806] ------- [REQUEST 0/0 0/9]
r 0.003703269 _3_ MAC  --- 0 ARP 28 [0 ffffffff 0 806] ------- [REQUEST 0/0 0/9]
r 0.003703311 _9_ MAC  --- 0 ARP 28 [0 ffffffff 0 806] ------- [REQUEST 0/0 0/9]
s 0.003893311 _9_ MAC  --- 0 RTS 44 [52e 0 9 0] 
r 0.004246142 _0_ MAC  --- 0 RTS 44 [52e 0 9 0] 
s 0.004256142 _0_ MAC  --- 0 CTS 38 [3f4 9 0 0] 
r 0.004560973 _9_ MAC  --- 0 CTS 38 [3f4 9 0 0] 
s 0.004570973 _9_ MAC  --- 0 ARP 86 [13a 0 9 806] ------- [REPLY 9/9 0/0]
r 0.005259803 _0_ MAC  --- 0 ARP 28 [13a 0 9 806] ------- [REPLY 9/9 0/0]
s 0.005269803 _0_ MAC  --- 0 ACK 38 [0 9 0 0] 
r 0.005574634 _9_ MAC  --- 0 ACK 38 [0 9 0 0] 
s 0.005683803 _0_ MAC  --- 0 RTS 44 [5ae 9 0 0] 
r 0.006036634 _9_ MAC  --- 0 RTS 44 [5ae 9 0 0] 
s 0.006046634 _9_ MAC  --- 0 CTS 38 [474 0 0 0] 
r 0.006351465 _0_ MAC  --- 0 CTS 38 [474 0 0 0] 
s 0.006361465 _0_ MAC  --- 0 AODV 102 [13a 9 0 800] ------- [0:255 4:255 30 9] [0x4 1 [0 4] 10.000000] (REPLY)
r 0.007178295 _9_ MAC  --- 0 AODV 44 [13a 9 0 800] ------- [0:255 4:255 30 9] [0x4 1 [0 4] 10.000000] (REPLY)
s 0.007188295 _9_ MAC  --- 0 ACK 38 [0 0 0 0] 
r 0.007203295 _9_ RTR  --- 0 AODV 44 [13a 9 0 800] ------- [0:255 4:255 30 9] [0x4 1 [0 4] 10.000000] (REPLY)
f 0.007203295 _9_ RTR  --- 0 AODV 44 [13a 9 0 800] ------- [0:255 4:255 29 4] [0x4 2 [0 4] 10.000000] (REPLY)
r 0.007493126 _0_ MAC  --- 0 ACK 38 [0 0 0 0] 
s 0.007722295 _9_ MAC  --- 0 ARP 86 [0 ffffffff 9 806] ------- [REQUEST 9/9 0/4]
s 0.008000000 _5_ AGT  --- 3 cbr 1000 [0 0 0 0] ------- [5:0 5:1 32 0] [1] 0 0
r 0.008000000 _5_ AGT  --- 3 cbr 1000 [0 0 0 0] ------- [5:0 5:1 32 0] [1] 0 0
s 0.008000000 _6_ AGT  --- 4 cbr 1000 [0 0 0 0] ------- [6:0 6:1 32 0] [1] 0 0
r 0.008000000 _6_ AGT  --- 4 cbr 1000 [0 0 0 0] ------- [6:0 6:1 32 0] [1] 0 0
s 0.008000000 _4_ AGT  --- 5 cbr 1000 [0 0 0 0] ------- [4:0 0:0 32 0] [1] 0 0
r 0.008000000 _4_ RTR  --- 5 cbr 1000 [0 0 0 0] ------- [4:0 0:0 32 0] [1] 0 0
r 0.008410899 _4_ MAC  --- 0 ARP 28 [0 ffffffff 9 806] ------- [REQUEST 9/9 0/4]
r 0.008411056 _2_ MAC  --- 0 ARP 28 [0 ffffffff 9 806] ------- [REQUEST 9/9 0/4]
r 0.008411126 _0_ MAC  --- 0 ARP 28 [0 ffffffff 9 806] ------- [REQUEST 9/9 0/4]
s 0.008705899 _4_ MAC  --- 0 RTS 44 [52e 9 4 0] 
r 0.009058502 _9_ MAC  --- 0 RTS 44 [52e 9 4 0] 
s 0.009068502 _9_ MAC  --- 0 CTS 38 [3f4 4 0 0] 
r 0.009373105 _4_ MAC  --- 0 CTS 38 [3f4 4 0 0] 
s 0.009383105 _4_ MAC  --- 0 ARP 86 [13a 9 4 806] ------- [REPLY 4/4 9/9]
r 0.010071709 _9_ MAC  --- 0 ARP 28 [13a 9 4 806] ------- [REPLY 4/4 9/9]
s 0.010081709 _9_ MAC  --- 0 ACK 38 [0 4 0 0] 
r 0.010386312 _4_ MAC  --- 0 ACK 38 [0 4 0 0] 
s 0.010455709 _9_ MAC  --- 0 RTS 44 [5ae 4 9 0] 
s 0.010790966 _2_ RTR  --- 0 AODV 48 [0 ffffffff 9 800] ------- [2:255 -1:255 28 0] [0x2 3 1 [0 0] [4 4]] (REQUEST)
r 0.010808312 _4_ MAC  --- 0 RTS 44 [5ae 4 9 0] 
s 0.010818312 _4_ MAC  --- 0 CTS 38 [474 9 0 0] 
r 0.011122916 _9_ MAC  --- 0 CTS 38 [474 9 0 0] 
s 0.011132916 _9_ MAC  --- 0 AODV 102 [13a 4 9 800] ------- [0:255 4:255 29 4] [0x4 2 [0 4] 10.000000] (REPLY)
r 0.011949519 _4_ MAC  --- 0 AODV 44 [13a 4 9 800] ------- [0:255 4:255 29 4] [0x4 2 [0 4] 10.000000] (REPLY)
s 0.011959519 _4_ MAC  --- 0 ACK 38 [0 9 0 0] 
r 0.011974519 _4_ RTR  --- 0 AODV 44 [13a 4 9 800] ------- [0:255 4:255 29 4] [0x4 2 [0 4] 10.000000] (REPLY)
s 0.011974519 _4_ RTR  --- 2 cbr 1020 [0 0 0 0] ------- [4:0 0:0 30 9] [0] 0 0
r 0.012264123 _9_ MAC  --- 0 ACK 38 [0 9 0 0] 
s 0.012333519 _4_ MAC  --- 0 RTS 44 [242e 9 4 0] 
r 0.012686123 _9_ MAC  --- 0 RTS 44 [242e 9 4 0] 
s 0.012696123 _9_ MAC  --- 0 CTS 38 [22f4 4 0 0] 
r 0.013000726 _4_ MAC  --- 0 CTS 38 [22f4 4 0 0] 
s 0.013010726 _4_ MAC  --- 2 cbr 1078 [13a 9 4 800] ------- [4:0 0:0 30 9] [0] 0 0
s 0.016000000 _5_ AGT  --- 6 cbr 1000 [0 0 0 0] ------- [5:0 5:1 32 0] [2] 0 0
r 0.016000000 _5_ AGT  --- 6 cbr 1000 [0 0 0 0] ------- [5:0 5:1 32 0] [2] 0 0
s 0.016000000 _6_ AGT  --- 7 cbr 1000 [0 0 0 0] ------- [6:0 6:1 32 0] [2] 0 0
r 0.016000000 _6_ AGT  --- 7 cbr 1000 [0 0 0 0] ------- [6:0 6:1 32 0] [2] 0 0
s 0.016000000 _4_ AGT  --- 8 cbr 1000 [0 0 0 0] ------- [4:0 0:0 32 0] [2] 0 0
r 0.016000000 _4_ RTR  --- 8 cbr 1000 [0 0 0 0] ------- [4:0 0:0 32 0] [2] 0 0
s 0.016000000 _4_ RTR  --- 8 cbr 1020 [0 0 0 0] ------- [4:0 0:0 30 9] [2] 0 0
r 0.021635329 _9_ MAC  --- 2 cbr 1020 [13a 9 4 800] ------- [4:0 0:0 30 9] [0] 1 0
s 0.021645329 _9_ MAC  --- 0 ACK 38 [0 4 0 0] 
r 0.021660329 _9_ RTR  --- 2 cbr 1020 [13a 9 4 800] ------- [4:0 0:0 30 9] [0] 1 0
f 0.021660329 _9_ RTR  --- 2 cbr 1020 [13a 9 4 800] ------- [4:0 0:0 29 0] [0] 1 0
r 0.021949933 _4_ MAC  --- 0 ACK 38 [0 4 0 0] 
s 0.021974519 _4_ RTR  --- 5 cbr 1020 [0 0 0 0] ------- [4:0 0:0 30 9] [1] 0 0
s 0.022139329 _9_ MAC  --- 0 RTS 44 [242e 0 9 0] 
r 0.022492160 _0_ MAC  --- 0 RTS 44 [242e 0 9 0] 
s 0.022502160 _0_ MAC  --- 0 CTS 38 [22f4 9 0 0] 
r 0.022806991 _9_ MAC  --- 0 CTS 38 [22f4 9 0 0] 
s 0.022816991 _9_ MAC  --- 2 cbr 1078 [13a 0 9 800] ------- [4:0 0:0 29 0] [0] 1 0
s 0.024000000 _5_ AGT  --- 9 cbr 1000 [0 0 0 0] ------- [5:0 5:1 32 0] [3] 0 0
r 0.024000000 _5_ AGT  --- 9 cbr 1000 [0 0 0 0] ------- [5:0 5:1 32 0] [3] 0 0
s 0.024000000 _6_ AGT  --- 10 cbr 1000 [0 0 0 0] ------- [6:0 6:1 32 0] [3] 0 0
r 0.024000000 _6_ AGT  --- 10 cbr 1000 [0 0 0 0] ------- [6:0 6:1 32 0] [3] 0 0
s 0.024000000 _4_ AGT  --- 11 cbr 1000 [0 0 0 0] ------- [4:0 0:0 32 0] [3] 0 0
r 0.024000000 _4_ RTR  --- 11 cbr 1000 [0 0 0 0] ------- [4:0 0:0 32 0] [3] 0 0
s 0.024000000 _4_ RTR  --- 11 cbr 1020 [0 0 0 0] ------- [4:0 0:0 30 9] [3] 0 0
r 0.031441821 _0_ MAC  --- 2 cbr 1020 [13a 0 9 800] ------- [4:0 0:0 29 0] [0] 2 0
s 0.031451821 _0_ MAC  --- 0 ACK 38 [0 9 0 0] 
r 0.031466821 _0_ AGT  --- 2 cbr 1020 [13a 0 9 800] ------- [4:0 0:0 29 0] [0] 2 0
r 0.031756652 _9_ MAC  --- 0 ACK 38 [0 9 0 0] 
s 0.032000000 _5_ AGT  --- 12 cbr 1000 [0 0 0 0] ------- [5:0 5:1 32 0] [4] 0 0
r 0.032000000 _5_ AGT  --- 12 cbr 1000 [0 0 0 0] ------- [5:0 5:1 32 0] [4] 0 0
s 0.032000000 _6_ AGT  --- 13 cbr 1000 [0 0 0 0] ------- [6:0 6:1 32 0] [4] 0 0
r 0.032000000 _6_ AGT  --- 13 cbr 1000 [0 0 0 0] ------- [6:0 6:1 32 0] [4] 0 0
s 0.032000000 _4_ AGT  --- 14 cbr 1000 [0 0 0 0] ------- [4:0 0:0 32 0] [4] 0 0
r 0.032000000 _4_ RTR  --- 14 cbr 1000 [0 0 0 0] ------- [4:0 0:0 32 0] [4] 0 0
s 0.032000000 _4_ RTR  --- 14 cbr 1020 [0 0 0 0] ------- [4:0 0:0 30 9] [4] 0 0
s 0.032411093 _4_ MAC  --- 0 RTS 44 [242e 9 4 0] 
r 0.032763696 _9_ MAC  --- 0 RTS 44 [242e 9 4 0] 
s 0.032773696 _9_ MAC  --- 0 CTS 38 [22f4 4 0 0] 
r 0.033078300 _4_ MAC  --- 0 CTS 38 [22f4 4 0 0] 
s 0.033088300 _4_ MAC  --- 8 cbr 1078 [13a 9 4 800] ------- [4:0 0:0 30 9] [2] 0 0
s 0.040000000 _5_ AGT  --- 15 cbr 1000 [0 0 0 0] ------- [5:0 5:1 32 0] [5] 0 0
r 0.040000000 _5_ AGT  --- 15 cbr 1000 [0 0 0 0] ------- [5:0 5:1 32 0] [5] 0 0
s 0.040000000 _6_ AGT  --- 16 cbr 1000 [0 0 0 0] ------- [6:0 6:1 32 0] [5] 0 0
r 0.040000000 _6_ AGT  --- 16 cbr 1000 [0 0 0 0] ------- [6:0 6:1 32 0] [5] 0 0
s 0.040000000 _4_ AGT  --- 17 cbr 1000 [0 0 0 0] ------- [4:0 0:0 32 0] [5] 0 0
r 0.040000000 _4_ RTR  --- 17 cbr 1000 [0 0 0 0] ------- [4:0 0:0 32 0] [5] 0 0
s 0.040000000 _4_ RTR  --- 17 cbr 1020 [0 0 0 0] ------- [4:0 0:0 30 9] [5] 0 0
r 0.041712903 _9_ MAC  --- 8 cbr 1020 [13a 9 4 800] ------- [4:0 0:0 30 9] [2] 1 0
s 0.041722903 _9_ MAC  --- 0 ACK 38 [0 4 0 0] 
r 0.041737903 _9_ RTR  --- 8 cbr 1020 [13a 9 4 800] ------- [4:0 0:0 30 9] [2] 1 0
f 0.041737903 _9_ RTR  --- 8 cbr 1020 [13a 9 4 800] ------- [4:0 0:0 29 0] [2] 1 0
r 0.042027507 _4_ MAC  --- 0 ACK 38 [0 4 0 0] 
s 0.042236903 _9_ MAC  --- 0 RTS 44 [242e 0 9 0] 
r 0.042589734 _0_ MAC  --- 0 RTS 44 [242e 0 9 0] 
s 0.042599734 _0_ MAC  --- 0 CTS 38 [22f4 9 0 0] 
r 0.042904565 _9_ MAC  --- 0 CTS 38 [22f4 9 0 0] 
s 0.042914565 _9_ MAC  --- 8 cbr 1078 [13a 0 9 800] ------- [4:0 0:0 29 0] [2] 1 0
s 0.048000000 _5_ AGT  --- 18 cbr 1000 [0 0 0 0] ------- [5:0 5:1 32 0] [6] 0 0
r 0.048000000 _5_ AGT  --- 18 cbr 1000 [0 0 0 0] ------- [5:0 5:1 32 0] [6] 0 0
s 0.048000000 _6_ AGT  --- 19 cbr 1000 [0 0 0 0] ------- [6:0 6:1 32 0] [6] 0 0
r 0.048000000 _6_ AGT  --- 19 cbr 1000 [0 0 0 0] ------- [6:0 6:1 32 0] [6] 0 0
s 0.048000000 _4_ AGT  --- 20 cbr 1000 [0 0 0 0] ------- [4:0 0:0 32 0] [6] 0 0
r 0.048000000 _4_ RTR  --- 20 cbr 1000 [0 0 0 0] ------- [4:0 0:0 32 0] [6] 0 0
s 0.048000000 _4_ RTR  --- 20 cbr 1020 [0 0 0 0] ------- [4:0 0:0 30 9] [6] 0 0
r 0.051539395 _0_ MAC  --- 8 cbr 1020 [13a 0 9 800] ------- [4:0 0:0 29 0] [2] 2 0
s 0.051549395 _0_ MAC  --- 0 ACK 38 [0 9 0 0] 
r 0.051564395 _0_ AGT  --- 8 cbr 1020 [13a 0 9 800] ------- [4:0 0:0 29 0] [2] 2 0
r 0.051854226 _9_ MAC  --- 0 ACK 38 [0 9 0 0] 
s 0.052388631 _2_ MAC  --- 0 AODV 106 [0 ffffffff 2 800] ------- [2:255 -1:255 28 0] [0x2 3 1 [0 0] [4 4]] (REQUEST)
r 0.053237282 _19_ MAC  --- 0 AODV 48 [0 ffffffff 2 800] ------- [2:255 -1:255 28 0] [0x2 3 1 [0 0] [4 4]] (REQUEST)
r 0.053237328 _3_ MAC  --- 0 AODV 48 [0 ffffffff 2 800] ------- [2:255 -1:255 28 0] [0x2 3 1 [0 0] [4 4]] (REQUEST)
r 0.053237335 _12_ MAC  --- 0 AODV 48 [0 ffffffff 2 800] ------- [2:255 -1:255 28 0] [0x2 3 1 [0 0] [4 4]] (REQUEST)
r 0.053237385 _16_ MAC  --- 0 AODV 48 [0 ffffffff 2 800] ------- [2:255 -1:255 28 0] [0x2 3 1 [0 0] [4 4]] (REQUEST)
r 0.053237392 _9_ MAC  --- 0 AODV 48 [0 ffffffff 2 800] ------- [2:255 -1:255 28 0] [0x2 3 1 [0 0] [4 4]] (REQUEST)
r 0.053262282 _19_ RTR  --- 0 AODV 48 [0 ffffffff 2 800] ------- [2:255 -1:255 28 0] [0x2 3 1 [0 0] [4 4]] (REQUEST)
r 0.053262328 _3_ RTR  --- 0 AODV 48 [0 ffffffff 2 800] ------- [2:255 -1:255 28 0] [0x2 3 1 [0 0] [4 4]] (REQUEST)
r 0.053262335 _12_ RTR  --- 0 AODV 48 [0 ffffffff 2 800] ------- [2:255 -1:255 28 0] [0x2 3 1 [0 0] [4 4]] (REQUEST)
r 0.053262385 _16_ RTR  --- 0 AODV 48 [0 ffffffff 2 800] ------- [2:255 -1:255 28 0] [0x2 3 1 [0 0] [4 4]] (REQUEST)
r 0.053262392 _9_ RTR  --- 0 AODV 48 [0 ffffffff 2 800] ------- [2:255 -1:255 28 0] [0x2 3 1 [0 0] [4 4]] (REQUEST)
s 0.053851889 _4_ MAC  --- 0 RTS 44 [242e 9 4 0] 
r 0.054204492 _9_ MAC  --- 0 RTS 44 [242e 9 4 0] 
s 0.054214492 _9_ MAC  --- 0 CTS 38 [22f4 4 0 0] 
r 0.054519096 _4_ MAC  --- 0 CTS 38 [22f4 4 0 0] 
s 0.054529096 _4_ MAC  --- 5 cbr 1078 [13a 9 4 800] ------- [4:0 0:0 30 9] [1] 0 0
s 0.055843208 _3_ RTR  --- 0 AODV 48 [0 ffffffff 2 800] ------- [3:255 -1:255 27 0] [0x2 4 1 [0 0] [4 4]] (REQUEST)
s 0.056000000 _5_ AGT  --- 21 cbr 1000 [0 0 0 0] ------- [5:0 5:1 32 0] [7] 0 0
r 0.056000000 _5_ AGT  --- 21 cbr 1000 [0 0 0 0] ------- [5:0 5:1 32 0] [7] 0 0
s 0.056000000 _6_ AGT  --- 22 cbr 1000 [0 0 0 0] ------- [6:0 6:1 32 0] [7] 0 0
r 0.056000000 _6_ AGT  --- 22 cbr 1000 [0 0 0 0] ------- [6:0 6:1 32 0] [7] 0 0
s 0.056000000 _4_ AGT  --- 23 cbr 1000 [0 0 0 0] ------- [4:0 0:0 32 0] [7] 0 0
r 0.056000000 _4_ RTR  --- 23 cbr 1000 [0 0 0 0] ------- [4:0 0:0 32 0] [7] 0 0
s 0.056000000 _4_ RTR  --- 23 cbr 1020 [0 0 0 0] ------- [4:0 0:0 30 9] [7] 0 0
s 0.056749692 _19_ RTR  --- 0 AODV 48 [0 ffffffff 2 800] ------- [19:255 -1:255 27 0] [0x2 4 1 [0 0] [4 4]] (REQUEST)
s 0.057004692 _19_ MAC  --- 0 AODV 106 [0 ffffffff 13 800] ------- [19:255 -1:255 27 0] [0x2 4 1 [0 0] [4 4]] (REQUEST)
D 0.057005343 _2_ MAC  COL 0 AODV 106 [0 ffffffff 13 800] ------- [19:255 -1:255 27 0] [0x2 4 1 [0 0] [4 4]] (REQUEST)
s 0.057349192 _12_ RTR  --- 0 AODV 48 [0 ffffffff 2 800] ------- [12:255 -1:255 27 0] [0x2 4 1 [0 0] [4 4]] (REQUEST)
r 0.057853056 _18_ MAC  --- 0 AODV 48 [0 ffffffff 13 800] ------- [19:255 -1:255 27 0] [0x2 4 1 [0 0] [4 4]] (REQUEST)
r 0.057853365 _16_ MAC  --- 0 AODV 48 [0 ffffffff 13 800] ------- [19:255 -1:255 27 0] [0x2 4 1 [0 0] [4 4]] (REQUEST)
r 0.057853415 _11_ MAC  --- 0 AODV 48 [0 ffffffff 13 800] ------- [19:255 -1:255 27 0] [0x2 4 1 [0 0] [4 4]] (REQUEST)
r 0.057853428 _17_ MAC  --- 0 AODV 48 [0 ffffffff 13 800] ------- [19:255 -1:255 27 0] [0x2 4 1 [0 0] [4 4]] (REQUEST)
r 0.057878056 _18_ RTR  --- 0 AODV 48 [0 ffffffff 13 800] ------- [19:255 -1:255 27 0] [0x2 4 1 [0 0] [4 4]] (REQUEST)
r 0.057878365 _16_ RTR  --- 0 AODV 48 [0 ffffffff 13 800] ------- [19:255 -1:255 27 0] [0x2 4 1 [0 0] [4 4]] (REQUEST)
r 0.057878415 _11_ RTR  --- 0 AODV 48 [0 ffffffff 13 800] ------- [19:255 -1:255 27 0] [0x2 4 1 [0 0] [4 4]] (REQUEST)
r 0.057878428 _17_ RTR  --- 0 AODV 48 [0 ffffffff 13 800] ------- [19:255 -1:255 27 0] [0x2 4 1 [0 0] [4 4]] (REQUEST)
s 0.058448873 _16_ RTR  --- 0 AODV 48 [0 ffffffff 2 800] ------- [16:255 -1:255 27 0] [0x2 4 1 [0 0] [4 4]] (REQUEST)
s 0.058823873 _16_ MAC  --- 0 AODV 106 [0 ffffffff 10 800] ------- [16:255 -1:255 27 0] [0x2 4 1 [0 0] [4 4]] (REQUEST)
D 0.058824375 _3_ MAC  COL 0 AODV 106 [0 ffffffff 10 800] ------- [16:255 -1:255 27 0] [0x2 4 1 [0 0] [4 4]] (REQUEST)
D 0.058824628 _2_ MAC  COL 0 AODV 106 [0 ffffffff 10 800] ------- [16:255 -1:255 27 0] [0x2 4 1 [0 0] [4 4]] (REQUEST)
r 0.059672546 _19_ MAC  --- 0 AODV 48 [0 ffffffff 10 800] ------- [16:255 -1:255 27 0] [0x2 4 1 [0 0] [4 4]] (REQUEST)
r 0.059672569 _17_ MAC  --- 0 AODV 48 [0 ffffffff 10 800] ------- [16:255 -1:255 27 0] [0x2 4 1 [0 0] [4 4]] (REQUEST)
r 0.059672629 _1_ MAC  --- 0 AODV 48 [0 ffffffff 10 800] ------- [16:255 -1:255 27 0] [0x2 4 1 [0 0] [4 4]] (REQUEST)
r 0.059697546 _19_ RTR  --- 0 AODV 48 [0 ffffffff 10 800] ------- [16:255 -1:255 27 0] [0x2 4 1 [0 0] [4 4]] (REQUEST)
r 0.059697569 _17_ RTR  --- 0 AODV 48 [0 ffffffff 10 800] ------- [16:255 -1:255 27 0] [0x2 4 1 [0 0] [4 4]] (REQUEST)
r 0.059697629 _1_ RTR  --- 0 AODV 48 [0 ffffffff 10 800] ------- [16:255 -1:255 27 0] [0x2 4 1 [0 0] [4 4]] (REQUEST)
s 0.060049650 _18_ RTR  --- 0 AODV 48 [0 ffffffff 13 800] ------- [18:255 -1:255 26 0] [0x2 5 1 [0 0] [4 4]] (REQUEST)
s 0.060204650 _18_ MAC  --- 0 AODV 106 [0 ffffffff 12 800] ------- [18:255 -1:255 26 0] [0x2 5 1 [0 0] [4 4]] (REQUEST)
s 0.060290671 _11_ RTR  --- 0 AODV 48 [0 ffffffff 13 800] ------- [11:255 -1:255 26 0] [0x2 5 1 [0 0] [4 4]] (REQUEST)
r 0.061053014 _19_ MAC  --- 0 AODV 48 [0 ffffffff 12 800] ------- [18:255 -1:255 26 0] [0x2 5 1 [0 0] [4 4]] (REQUEST)
r 0.061053235 _11_ MAC  --- 0 AODV 48 [0 ffffffff 12 800] ------- [18:255 -1:255 26 0] [0x2 5 1 [0 0] [4 4]] (REQUEST)
r 0.061053328 _17_ MAC  --- 0 AODV 48 [0 ffffffff 12 800] ------- [18:255 -1:255 26 0] [0x2 5 1 [0 0] [4 4]] (REQUEST)
r 0.061078014 _19_ RTR  --- 0 AODV 48 [0 ffffffff 12 800] ------- [18:255 -1:255 26 0] [0x2 5 1 [0 0] [4 4]] (REQUEST)
r 0.061078235 _11_ RTR  --- 0 AODV 48 [0 ffffffff 12 800] ------- [18:255 -1:255 26 0] [0x2 5 1 [0 0] [4 4]] (REQUEST)
r 0.061078328 _17_ RTR  --- 0 AODV 48 [0 ffffffff 12 800] ------- [18:255 -1:255 26 0] [0x2 5 1 [0 0] [4 4]] (REQUEST)
s 0.061383235 _11_ MAC  --- 0 AODV 106 [0 ffffffff b 800] ------- [11:255 -1:255 26 0] [0x2 5 1 [0 0] [4 4]] (REQUEST)
r 0.062231624 _13_ MAC  --- 0 AODV 48 [0 ffffffff b 800] ------- [11:255 -1:255 26 0] [0x2 5 1 [0 0] [4 4]] (REQUEST)
r 0.062231820 _18_ MAC  --- 0 AODV 48 [0 ffffffff b 800] ------- [11:255 -1:255 26 0] [0x2 5 1 [0 0] [4 4]] (REQUEST)
r 0.062231958 _19_ MAC  --- 0 AODV 48 [0 ffffffff b 800] ------- [11:255 -1:255 26 0] [0x2 5 1 [0 0] [4 4]] (REQUEST)
r 0.062256624 _13_ RTR  --- 0 AODV 48 [0 ffffffff b 800] ------- [11:255 -1:255 26 0] [0x2 5 1 [0 0] [4 4]] (REQUEST)
r 0.062256820 _18_ RTR  --- 0 AODV 48 [0 ffffffff b 800] ------- [11:255 -1:255 26 0] [0x2 5 1 [0 0] [4 4]] (REQUEST)
r 0.062256958 _19_ RTR  --- 0 AODV 48 [0 ffffffff b 800] ------- [11:255 -1:255 26 0] [0x2 5 1 [0 0] [4 4]] (REQUEST)
r 0.063153699 _9_ MAC  --- 5 cbr 1020 [13a 9 4 800] ------- [4:0 0:0 30 9] [1] 1 0
s 0.063163699 _9_ MAC  --- 0 ACK 38 [0 4 0 0] 
r 0.063178699 _9_ RTR  --- 5 cbr 1020 [13a 9 4 800] ------- [4:0 0:0 30 9] [1] 1 0
f 0.063178699 _9_ RTR  --- 5 cbr 1020 [13a 9 4 800] ------- [4:0 0:0 29 0] [1] 1 0
r 0.063468302 _4_ MAC  --- 0 ACK 38 [0 4 0 0] 
s 0.063718302 _4_ MAC  --- 0 RTS 44 [242e 9 4 0] 
s 0.064000000 _5_ AGT  --- 24 cbr 1000 [0 0 0 0] ------- [5:0 5:1 32 0] [8] 0 0
r 0.064000000 _5_ AGT  --- 24 cbr 1000 [0 0 0 0] ------- [5:0 5:1 32 0] [8] 0 0
s 0.064000000 _6_ AGT  --- 25 cbr 1000 [0 0 0 0] ------- [6:0 6:1 32 0] [8] 0 0
r 0.064000000 _6_ AGT  --- 25 cbr 1000 [0 0 0 0] ------- [6:0 6:1 32 0] [8] 0 0
s 0.064000000 _4_ AGT  --- 26 cbr 1000 [0 0 0 0] ------- [4:0 0:0 32 0] [8] 0 0
r 0.064000000 _4_ RTR  --- 26 cbr 1000 [0 0 0 0] ------- [4:0 0:0 32 0] [8] 0 0
s 0.064000000 _4_ RTR  --- 26 cbr 1020 [0 0 0 0] ------- [4:0 0:0 30 9] [8] 0 0
r 0.064070906 _9_ MAC  --- 0 RTS 44 [242e 9 4 0] 
s 0.064080906 _9_ MAC  --- 0 CTS 38 [22f4 4 0 0] 
r 0.064385509 _4_ MAC  --- 0 CTS 38 [22f4 4 0 0] 
s 0.064395509 _4_ MAC  --- 11 cbr 1078 [13a 9 4 800] ------- [4:0 0:0 30 9] [3] 0 0
s 0.066389494 _17_ RTR  --- 0 AODV 48 [0 ffffffff 13 800] ------- [17:255 -1:255 26 0] [0x2 5 1 [0 0] [4 4]] (REQUEST)
s 0.067044494 _17_ MAC  --- 0 AODV 106 [0 ffffffff 11 800] ------- [17:255 -1:255 26 0] [0x2 5 1 [0 0] [4 4]] (REQUEST)
r 0.067893172 _18_ MAC  --- 0 AODV 48 [0 ffffffff 11 800] ------- [17:255 -1:255 26 0] [0x2 5 1 [0 0] [4 4]] (REQUEST)
r 0.067893190 _16_ MAC  --- 0 AODV 48 [0 ffffffff 11 800] ------- [17:255 -1:255 26 0] [0x2 5 1 [0 0] [4 4]] (REQUEST)
r 0.067893230 _19_ MAC  --- 0 AODV 48 [0 ffffffff 11 800] ------- [17:255 -1:255 26 0] [0x2 5 1 [0 0] [4 4]] (REQUEST)
r 0.067918172 _18_ RTR  --- 0 AODV 48 [0 ffffffff 11 800] ------- [17:255 -1:255 26 0] [0x2 5 1 [0 0] [4 4]] (REQUEST)
r 0.067918190 _16_ RTR  --- 0 AODV 48 [0 ffffffff 11 800] ------- [17:255 -1:255 26 0] [0x2 5 1 [0 0] [4 4]] (REQUEST)
r 0.067918230 _19_ RTR  --- 0 AODV 48 [0 ffffffff 11 800] ------- [17:255 -1:255 26 0] [0x2 5 1 [0 0] [4 4]] (REQUEST)
s 0.068747084 _1_ RTR  --- 0 AODV 48 [0 ffffffff 10 800] ------- [1:255 -1:255 26 0] [0x2 5 1 [0 0] [4 4]] (REQUEST)
s 0.068942084 _1_ MAC  --- 0 AODV 106 [0 ffffffff 1 800] ------- [1:255 -1:255 26 0] [0x2 5 1 [0 0] [4 4]] (REQUEST)
D 0.068942808 _3_ MAC  COL 0 AODV 106 [0 ffffffff 1 800] ------- [1:255 -1:255 26 0] [0x2 5 1 [0 0] [4 4]] (REQUEST)
r 0.069790807 _7_ MAC  --- 0 AODV 48 [0 ffffffff 1 800] ------- [1:255 -1:255 26 0] [0x2 5 1 [0 0] [4 4]] (REQUEST)
r 0.069790840 _16_ MAC  --- 0 AODV 48 [0 ffffffff 1 800] ------- [1:255 -1:255 26 0] [0x2 5 1 [0 0] [4 4]] (REQUEST)
r 0.069815807 _7_ RTR  --- 0 AODV 48 [0 ffffffff 1 800] ------- [1:255 -1:255 26 0] [0x2 5 1 [0 0] [4 4]] (REQUEST)
r 0.069815840 _16_ RTR  --- 0 AODV 48 [0 ffffffff 1 800] ------- [1:255 -1:255 26 0] [0x2 5 1 [0 0] [4 4]] (REQUEST)
s 0.071131059 _13_ RTR  --- 0 AODV 48 [0 ffffffff b 800] ------- [13:255 -1:255 25 0] [0x2 6 1 [0 0] [4 4]] (REQUEST)
s 0.071486059 _13_ MAC  --- 0 AODV 106 [0 ffffffff d 800] ------- [13:255 -1:255 25 0] [0x2 6 1 [0 0] [4 4]] (REQUEST)
D 0.071486611 _15_ MAC  COL 0 AODV 106 [0 ffffffff d 800] ------- [13:255 -1:255 25 0] [0x2 6 1 [0 0] [4 4]] (REQUEST)
D 0.071486819 _12_ MAC  COL 0 AODV 106 [0 ffffffff d 800] ------- [13:255 -1:255 25 0] [0x2 6 1 [0 0] [4 4]] (REQUEST)
s 0.072000000 _5_ AGT  --- 27 cbr 1000 [0 0 0 0] ------- [5:0 5:1 32 0] [9] 0 0
r 0.072000000 _5_ AGT  --- 27 cbr 1000 [0 0 0 0] ------- [5:0 5:1 32 0] [9] 0 0
s 0.072000000 _6_ AGT  --- 28 cbr 1000 [0 0 0 0] ------- [6:0 6:1 32 0] [9] 0 0
r 0.072000000 _6_ AGT  --- 28 cbr 1000 [0 0 0 0] ------- [6:0 6:1 32 0] [9] 0 0
s 0.072000000 _4_ AGT  --- 29 cbr 1000 [0 0 0 0] ------- [4:0 0:0 32 0] [9] 0 0
r 0.072000000 _4_ RTR  --- 29 cbr 1000 [0 0 0 0] ------- [4:0 0:0 32 0] [9] 0 0
s 0.072000000 _4_ RTR  --- 29 cbr 1020 [0 0 0 0] ------- [4:0 0:0 30 9] [9] 0 0
r 0.072334448 _11_ MAC  --- 0 AODV 48 [0 ffffffff d 800] ------- [13:255 -1:255 25 0] [0x2 6 1 [0 0] [4 4]] (REQUEST)
r 0.072334754 _14_ MAC  --- 0 AODV 48 [0 ffffffff d 800] ------- [13:255 -1:255 25 0] [0x2 6 1 [0 0] [4 4]] (REQUEST)
r 0.072359448 _11_ RTR  --- 0 AODV 48 [0 ffffffff d 800] ------- [13:255 -1:255 25 0] [0x2 6 1 [0 0] [4 4]] (REQUEST)
r 0.072359754 _14_ RTR  --- 0 AODV 48 [0 ffffffff d 800] ------- [13:255 -1:255 25 0] [0x2 6 1 [0 0] [4 4]] (REQUEST)
r 0.073020113 _9_ MAC  --- 11 cbr 1020 [13a 9 4 800] ------- [4:0 0:0 30 9] [3] 1 0
s 0.073030113 _9_ MAC  --- 0 ACK 38 [0 4 0 0] 
r 0.073045113 _9_ RTR  --- 11 cbr 1020 [13a 9 4 800] ------- [4:0 0:0 30 9] [3] 1 0
f 0.073045113 _9_ RTR  --- 11 cbr 1020 [13a 9 4 800] ------- [4:0 0:0 29 0] [3] 1 0
s 0.073172435 _7_ RTR  --- 0 AODV 48 [0 ffffffff 1 800] ------- [7:255 -1:255 25 0] [0x2 6 1 [0 0] [4 4]] (REQUEST)
r 0.073334716 _4_ MAC  --- 0 ACK 38 [0 4 0 0] 
s 0.073384716 _4_ MAC  --- 0 RTS 44 [242e 9 4 0] 
s 0.073727435 _7_ MAC  --- 0 AODV 106 [0 ffffffff 7 800] ------- [7:255 -1:255 25 0] [0x2 6 1 [0 0] [4 4]] (REQUEST)
r 0.073737320 _9_ MAC  --- 0 RTS 44 [242e 9 4 0] 
s 0.073747320 _9_ MAC  --- 0 CTS 38 [22f4 4 0 0] 
r 0.074051923 _4_ MAC  --- 0 CTS 38 [22f4 4 0 0] 
s 0.074061923 _4_ MAC  --- 14 cbr 1078 [13a 9 4 800] ------- [4:0 0:0 30 9] [4] 0 0
r 0.074576120 _6_ MAC  --- 0 AODV 48 [0 ffffffff 7 800] ------- [7:255 -1:255 25 0] [0x2 6 1 [0 0] [4 4]] (REQUEST)
r 0.074576130 _8_ MAC  --- 0 AODV 48 [0 ffffffff 7 800] ------- [7:255 -1:255 25 0] [0x2 6 1 [0 0] [4 4]] (REQUEST)
r 0.074576158 _1_ MAC  --- 0 AODV 48 [0 ffffffff 7 800] ------- [7:255 -1:255 25 0] [0x2 6 1 [0 0] [4 4]] (REQUEST)
r 0.074601120 _6_ RTR  --- 0 AODV 48 [0 ffffffff 7 800] ------- [7:255 -1:255 25 0] [0x2 6 1 [0 0] [4 4]] (REQUEST)
r 0.074601130 _8_ RTR  --- 0 AODV 48 [0 ffffffff 7 800] ------- [7:255 -1:255 25 0] [0x2 6 1 [0 0] [4 4]] (REQUEST)
r 0.074601158 _1_ RTR  --- 0 AODV 48 [0 ffffffff 7 800] ------- [7:255 -1:255 25 0] [0x2 6 1 [0 0] [4 4]] (REQUEST)
s 0.074929692 _14_ RTR  --- 0 AODV 48 [0 ffffffff d 800] ------- [14:255 -1:255 24 0] [0x2 7 1 [0 0] [4 4]] (REQUEST)
s 0.075224692 _14_ MAC  --- 0 AODV 106 [0 ffffffff e 800] ------- [14:255 -1:255 24 0] [0x2 7 1 [0 0] [4 4]] (REQUEST)
D 0.075225177 _15_ MAC  COL 0 AODV 106 [0 ffffffff e 800] ------- [14:255 -1:255 24 0] [0x2 7 1 [0 0] [4 4]] (REQUEST)
D 0.075225420 _10_ MAC  COL 0 AODV 106 [0 ffffffff e 800] ------- [14:255 -1:255 24 0] [0x2 7 1 [0 0] [4 4]] (REQUEST)
r 0.076073387 _13_ MAC  --- 0 AODV 48 [0 ffffffff e 800] ------- [14:255 -1:255 24 0] [0x2 7 1 [0 0] [4 4]] (REQUEST)
r 0.076098387 _13_ RTR  --- 0 AODV 48 [0 ffffffff e 800] ------- [14:255 -1:255 24 0] [0x2 7 1 [0 0] [4 4]] (REQUEST)
s 0.077219361 _6_ RTR  --- 0 AODV 48 [0 ffffffff 7 800] ------- [6:255 -1:255 24 0] [0x2 7 1 [0 0] [4 4]] (REQUEST)
s 0.077594361 _6_ MAC  --- 0 AODV 106 [0 ffffffff 6 800] ------- [6:255 -1:255 24 0] [0x2 7 1 [0 0] [4 4]] (REQUEST)
r 0.078443046 _7_ MAC  --- 0 AODV 48 [0 ffffffff 6 800] ------- [6:255 -1:255 24 0] [0x2 7 1 [0 0] [4 4]] (REQUEST)
r 0.078468046 _7_ RTR  --- 0 AODV 48 [0 ffffffff 6 800] ------- [6:255 -1:255 24 0] [0x2 7 1 [0 0] [4 4]] (REQUEST)
s 0.080000000 _5_ AGT  --- 30 cbr 1000 [0 0 0 0] ------- [5:0 5:1 32 0] [10] 0 0
r 0.080000000 _5_ AGT  --- 30 cbr 1000 [0 0 0 0] ------- [5:0 5:1 32 0] [10] 0 0
s 0.080000000 _6_ AGT  --- 31 cbr 1000 [0 0 0 0] ------- [6:0 6:1 32 0] [10] 0 0
r 0.080000000 _6_ AGT  --- 31 cbr 1000 [0 0 0 0] ------- [6:0 6:1 32 0] [10] 0 0
s 0.080000000 _4_ AGT  --- 32 cbr 1000 [0 0 0 0] ------- [4:0 0:0 32 0] [10] 0 0
r 0.080000000 _4_ RTR  --- 32 cbr 1000 [0 0 0 0] ------- [4:0 0:0 32 0] [10] 0 0
s 0.080000000 _4_ RTR  --- 32 cbr 1020 [0 0 0 0] ------- [4:0 0:0 30 9] [10] 0 0
s 0.080149527 _8_ RTR  --- 0 AODV 48 [0 ffffffff 7 800] ------- [8:255 -1:255 24 0] [0x2 7 1 [0 0] [4 4]] (REQUEST)
s 0.080464527 _8_ MAC  --- 0 AODV 106 [0 ffffffff 8 800] ------- [8:255 -1:255 24 0] [0x2 7 1 [0 0] [4 4]] (REQUEST)
r 0.081313006 _5_ MAC  --- 0 AODV 48 [0 ffffffff 8 800] ------- [8:255 -1:255 24 0] [0x2 7 1 [0 0] [4 4]] (REQUEST)
r 0.081313222 _7_ MAC  --- 0 AODV 48 [0 ffffffff 8 800] ------- [8:255 -1:255 24 0] [0x2 7 1 [0 0] [4 4]] (REQUEST)
r 0.081338006 _5_ RTR  --- 0 AODV 48 [0 ffffffff 8 800] ------- [8:255 -1:255 24 0] [0x2 7 1 [0 0] [4 4]] (REQUEST)
r 0.081338222 _7_ RTR  --- 0 AODV 48 [0 ffffffff 8 800] ------- [8:255 -1:255 24 0] [0x2 7 1 [0 0] [4 4]] (REQUEST)
r 0.082686526 _9_ MAC  --- 14 cbr 1020 [13a 9 4 800] ------- [4:0 0:0 30 9] [4] 1 0
s 0.082696526 _9_ MAC  --- 0 ACK 38 [0 4 0 0] 
r 0.082711526 _9_ RTR  --- 14 cbr 1020 [13a 9 4 800] ------- [4:0 0:0 30 9] [4] 1 0
f 0.082711526 _9_ RTR  --- 14 cbr 1020 [13a 9 4 800] ------- [4:0 0:0 29 0] [4] 1 0
r 0.083001130 _4_ MAC  --- 0 ACK 38 [0 4 0 0] 
s 0.083070526 _9_ MAC  --- 0 RTS 44 [242e 0 9 0] 
s 0.083071130 _4_ MAC  --- 0 RTS 44 [242e 9 4 0] 
D 0.083072402 _0_ MAC  COL 0 RTS 44 [242e 0 9 0] 
s 0.084278646 _3_ MAC  --- 0 AODV 106 [0 ffffffff 3 800] ------- [3:255 -1:255 27 0] [0x2 4 1 [0 0] [4 4]] (REQUEST)
r 0.085127148 _16_ MAC  --- 0 AODV 48 [0 ffffffff 3 800] ------- [3:255 -1:255 27 0] [0x2 4 1 [0 0] [4 4]] (REQUEST)
r 0.085127344 _2_ MAC  --- 0 AODV 48 [0 ffffffff 3 800] ------- [3:255 -1:255 27 0] [0x2 4 1 [0 0] [4 4]] (REQUEST)
r 0.085127370 _1_ MAC  --- 0 AODV 48 [0 ffffffff 3 800] ------- [3:255 -1:255 27 0] [0x2 4 1 [0 0] [4 4]] (REQUEST)
r 0.085127434 _0_ MAC  --- 0 AODV 48 [0 ffffffff 3 800] ------- [3:255 -1:255 27 0] [0x2 4 1 [0 0] [4 4]] (REQUEST)
r 0.085152148 _16_ RTR  --- 0 AODV 48 [0 ffffffff 3 800] ------- [3:255 -1:255 27 0] [0x2 4 1 [0 0] [4 4]] (REQUEST)
r 0.085152344 _2_ RTR  --- 0 AODV 48 [0 ffffffff 3 800] ------- [3:255 -1:255 27 0] [0x2 4 1 [0 0] [4 4]] (REQUEST)
r 0.085152370 _1_ RTR  --- 0 AODV 48 [0 ffffffff 3 800] ------- [3:255 -1:255 27 0] [0x2 4 1 [0 0] [4 4]] (REQUEST)
r 0.085152434 _0_ RTR  --- 0 AODV 48 [0 ffffffff 3 800] ------- [3:255 -1:255 27 0] [0x2 4 1 [0 0] [4 4]] (REQUEST)
s 0.085682035 _12_ MAC  --- 0 AODV 106 [0 ffffffff c 800] ------- [12:255 -1:255 27 0] [0x2 4 1 [0 0] [4 4]] (REQUEST)
r 0.086530543 _15_ MAC  --- 0 AODV 48 [0 ffffffff c 800] ------- [12:255 -1:255 27 0] [0x2 4 1 [0 0] [4 4]] (REQUEST)
r 0.086530736 _10_ MAC  --- 0 AODV 48 [0 ffffffff c 800] ------- [12:255 -1:255 27 0] [0x2 4 1 [0 0] [4 4]] (REQUEST)
r 0.086530739 _2_ MAC  --- 0 AODV 48 [0 ffffffff c 800] ------- [12:255 -1:255 27 0] [0x2 4 1 [0 0] [4 4]] (REQUEST)
r 0.086530794 _13_ MAC  --- 0 AODV 48 [0 ffffffff c 800] ------- [12:255 -1:255 27 0] [0x2 4 1 [0 0] [4 4]] (REQUEST)
r 0.086555543 _15_ RTR  --- 0 AODV 48 [0 ffffffff c 800] ------- [12:255 -1:255 27 0] [0x2 4 1 [0 0] [4 4]] (REQUEST)
r 0.086555736 _10_ RTR  --- 0 AODV 48 [0 ffffffff c 800] ------- [12:255 -1:255 27 0] [0x2 4 1 [0 0] [4 4]] (REQUEST)
r 0.086555739 _2_ RTR  --- 0 AODV 48 [0 ffffffff c 800] ------- [12:255 -1:255 27 0] [0x2 4 1 [0 0] [4 4]] (REQUEST)
r 0.086555794 _13_ RTR  --- 0 AODV 48 [0 ffffffff c 800] ------- [12:255 -1:255 27 0] [0x2 4 1 [0 0] [4 4]] (REQUEST)
s 0.087057070 _10_ RTR  --- 0 AODV 48 [0 ffffffff c 800] ------- [10:255 -1:255 26 0] [0x2 5 1 [0 0] [4 4]] (REQUEST)
s 0.087165045 _9_ MAC  --- 0 RTS 44 [242e 0 9 0] 
r 0.087517875 _0_ MAC  --- 0 RTS 44 [242e 0 9 0] 
s 0.087527875 _0_ MAC  --- 0 CTS 38 [22f4 9 0 0] 
r 0.087832706 _9_ MAC  --- 0 CTS 38 [22f4 9 0 0] 
s 0.087842706 _9_ MAC  --- 5 cbr 1078 [13a 0 9 800] ------- [4:0 0:0 29 0] [1] 1 0
s 0.088000000 _5_ AGT  --- 33 cbr 1000 [0 0 0 0] ------- [5:0 5:1 32 0] [11] 0 0
r 0.088000000 _5_ AGT  --- 33 cbr 1000 [0 0 0 0] ------- [5:0 5:1 32 0] [11] 0 0
s 0.088000000 _6_ AGT  --- 34 cbr 1000 [0 0 0 0] ------- [6:0 6:1 32 0] [11] 0 0
r 0.088000000 _6_ AGT  --- 34 cbr 1000 [0 0 0 0] ------- [6:0 6:1 32 0] [11] 0 0
s 0.088000000 _4_ AGT  --- 35 cbr 1000 [0 0 0 0] ------- [4:0 0:0 32 0] [11] 0 0
r 0.088000000 _4_ RTR  --- 35 cbr 1000 [0 0 0 0] ------- [4:0 0:0 32 0] [11] 0 0
s 0.088000000 _4_ RTR  --- 35 cbr 1020 [0 0 0 0] ------- [4:0 0:0 30 9] [11] 0 0
s 0.089064963 _5_ RTR  --- 0 AODV 48 [0 ffffffff 8 800] ------- [5:255 -1:255 23 0] [0x2 8 1 [0 0] [4 4]] (REQUEST)
s 0.089339963 _5_ MAC  --- 0 AODV 106 [0 ffffffff 5 800] ------- [5:255 -1:255 23 0] [0x2 8 1 [0 0] [4 4]] (REQUEST)
r 0.090188442 _8_ MAC  --- 0 AODV 48 [0 ffffffff 5 800] ------- [5:255 -1:255 23 0] [0x2 8 1 [0 0] [4 4]] (REQUEST)
r 0.090213442 _8_ RTR  --- 0 AODV 48 [0 ffffffff 5 800] ------- [5:255 -1:255 23 0] [0x2 8 1 [0 0] [4 4]] (REQUEST)