s 0.000000000 _5_ AGT  --- 0 cbr 1000 [0 0 0 0] ------- [5:0 5:1 32 0] [0] 0 0
r 0.000000000 _5_ AGT  --- 0 cbr 1000 [0 0 0 0] ------- [5:0 5:1 32 0] [0] 0 0
s 0.000000000 _6_ AGT  --- 1 cbr 1000 [0 0 0 0] ------- [6:0 6:1 32 0] [0] 0 0
r 0.000000000 _6_ AGT  --- 1 cbr 1000 [0 0 0 0] ------- [6:0 6:1 32 0] [0] 0 0
s 0.000000000 _4_ AGT  --- 2 cbr 1000 [0 0 0 0] ------- [4:0 0:0 32 0] [0] 0 0
r 0.000000000 _4_ RTR  --- 2 cbr 1000 [0 0 0 0] ------- [4:0 0:0 32 0] [0] 0 0
s 0.000000000 _17_ AGT  --- 3 cbr 1000 [0 0 0 0] ------- [17:0 1:0 32 0] [0] 0 0
r 0.000000000 _17_ RTR  --- 3 cbr 1000 [0 0 0 0] ------- [17:0 1:0 32 0] [0] 0 0
s 0.000000000 _4_ RTR  --- 0 AODV 48 [0 0 0 0] ------- [4:255 -1:255 30 0] [0x2 1 1 [0 0] [4 4]] (REQUEST)
s 0.000000000 _17_ RTR  --- 0 AODV 48 [0 0 0 0] ------- [17:255 -1:255 30 0] [0x2 1 1 [1 0] [17 4]] (REQUEST)
s 0.000115000 _17_ MAC  --- 0 AODV 106 [0 ffffffff 11 800] ------- [17:255 -1:255 30 0] [0x2 1 1 [1 0] [17 4]] (REQUEST)
s 0.000535000 _4_ MAC  --- 0 AODV 106 [0 ffffffff 4 800] ------- [4:255 -1:255 30 0] [0x2 1 1 [0 0] [4 4]] (REQUEST)
r 0.000963678 _18_ MAC  --- 0 AODV 48 [0 ffffffff 11 800] ------- [17:255 -1:255 30 0] [0x2 1 1 [1 0] [17 4]] (REQUEST)
r 0.000963696 _16_ MAC  --- 0 AODV 48 [0 ffffffff 11 800] ------- [17:255 -1:255 30 0] [0x2 1 1 [1 0] [17 4]] (REQUEST)
r 0.000963736 _19_ MAC  --- 0 AODV 48 [0 ffffffff 11 800] ------- [17:255 -1:255 30 0] [0x2 1 1 [1 0] [17 4]] (REQUEST)
r 0.000988678 _18_ RTR  --- 0 AODV 48 [0 ffffffff 11 800] ------- [17:255 -1:255 30 0] [0x2 1 1 [1 0] [17 4]] (REQUEST)
r 0.000988696 _16_ RTR  --- 0 AODV 48 [0 ffffffff 11 800] ------- [17:255 -1:255 30 0] [0x2 1 1 [1 0] [17 4]] (REQUEST)
r 0.000988736 _19_ RTR  --- 0 AODV 48 [0 ffffffff 11 800] ------- [17:255 -1:255 30 0] [0x2 1 1 [1 0] [17 4]] (REQUEST)
r 0.001383603 _9_ MAC  --- 0 AODV 48 [0 ffffffff 4 800] ------- [4:255 -1:255 30 0] [0x2 1 1 [0 0] [4 4]] (REQUEST)
r 0.001408603 _9_ RTR  --- 0 AODV 48 [0 ffffffff 4 800] ------- [4:255 -1:255 30 0] [0x2 1 1 [0 0] [4 4]] (REQUEST)
s 0.001869904 _18_ RTR  --- 0 AODV 48 [0 ffffffff 11 800] ------- [18:255 -1:255 29 0] [0x2 2 1 [1 0] [17 4]] (REQUEST)
s 0.002184904 _18_ MAC  --- 0 AODV 106 [0 ffffffff 12 800] ------- [18:255 -1:255 29 0] [0x2 2 1 [1 0] [17 4]] (REQUEST)
r 0.003033268 _19_ MAC  --- 0 AODV 48 [0 ffffffff 12 800] ------- [18:255 -1:255 29 0] [0x2 2 1 [1 0] [17 4]] (REQUEST)
r 0.003033489 _11_ MAC  --- 0 AODV 48 [0 ffffffff 12 800] ------- [18:255 -1:255 29 0] [0x2 2 1 [1 0] [17 4]] (REQUEST)
r 0.003033582 _17_ MAC  --- 0 AODV 48 [0 ffffffff 12 800] ------- [18:255 -1:255 29 0] [0x2 2 1 [1 0] [17 4]] (REQUEST)
r 0.003058268 _19_ RTR  --- 0 AODV 48 [0 ffffffff 12 800] ------- [18:255 -1:255 29 0] [0x2 2 1 [1 0] [17 4]] (REQUEST)
r 0.003058489 _11_ RTR  --- 0 AODV 48 [0 ffffffff 12 800] ------- [18:255 -1:255 29 0] [0x2 2 1 [1 0] [17 4]] (REQUEST)
r 0.003058582 _17_ RTR  --- 0 AODV 48 [0 ffffffff 12 800] ------- [18:255 -1:255 29 0] [0x2 2 1 [1 0] [17 4]] (REQUEST)
s 0.005400430 _16_ RTR  --- 0 AODV 48 [0 ffffffff 11 800] ------- [16:255 -1:255 29 0] [0x2 2 1 [1 0] [17 4]] (REQUEST)
s 0.005715430 _16_ MAC  --- 0 AODV 106 [0 ffffffff 10 800] ------- [16:255 -1:255 29 0] [0x2 2 1 [1 0] [17 4]] (REQUEST)
s 0.006149280 _11_ RTR  --- 0 AODV 48 [0 ffffffff 12 800] ------- [11:255 -1:255 28 0] [0x2 3 1 [1 0] [17 4]] (REQUEST)
r 0.006563932 _3_ MAC  --- 0 AODV 48 [0 ffffffff 10 800] ------- [16:255 -1:255 29 0] [0x2 2 1 [1 0] [17 4]] (REQUEST)
r 0.006564103 _19_ MAC  --- 0 AODV 48 [0 ffffffff 10 800] ------- [16:255 -1:255 29 0] [0x2 2 1 [1 0] [17 4]] (REQUEST)
r 0.006564126 _17_ MAC  --- 0 AODV 48 [0 ffffffff 10 800] ------- [16:255 -1:255 29 0] [0x2 2 1 [1 0] [17 4]] (REQUEST)
r 0.006564185 _2_ MAC  --- 0 AODV 48 [0 ffffffff 10 800] ------- [16:255 -1:255 29 0] [0x2 2 1 [1 0] [17 4]] (REQUEST)
r 0.006564186 _1_ MAC  --- 0 AODV 48 [0 ffffffff 10 800] ------- [16:255 -1:255 29 0] [0x2 2 1 [1 0] [17 4]] (REQUEST)
r 0.006588932 _3_ RTR  --- 0 AODV 48 [0 ffffffff 10 800] ------- [16:255 -1:255 29 0] [0x2 2 1 [1 0] [17 4]] (REQUEST)
r 0.006589103 _19_ RTR  --- 0 AODV 48 [0 ffffffff 10 800] ------- [16:255 -1:255 29 0] [0x2 2 1 [1 0] [17 4]] (REQUEST)
r 0.006589126 _17_ RTR  --- 0 AODV 48 [0 ffffffff 10 800] ------- [16:255 -1:255 29 0] [0x2 2 1 [1 0] [17 4]] (REQUEST)
r 0.006589185 _2_ RTR  --- 0 AODV 48 [0 ffffffff 10 800] ------- [16:255 -1:255 29 0] [0x2 2 1 [1 0] [17 4]] (REQUEST)
r 0.006589186 _1_ RTR  --- 0 AODV 48 [0 ffffffff 10 800] ------- [16:255 -1:255 29 0] [0x2 2 1 [1 0] [17 4]] (REQUEST)
s 0.006589186 _1_ RTR  --- 0 AODV 44 [0 0 0 0] ------- [1:255 17:255 30 16] [0x4 1 [1 4] 10.000000] (REPLY)
s 0.006884186 _1_ MAC  --- 0 ARP 86 [0 ffffffff 1 806] ------- [REQUEST 1/1 0/16]
s 0.007018826 _11_ MAC  --- 0 AODV 106 [0 ffffffff b 800] ------- [11:255 -1:255 28 0] [0x2 3 1 [1 0] [17 4]] (REQUEST)
r 0.007572909 _7_ MAC  --- 0 ARP 28 [0 ffffffff 1 806] ------- [REQUEST 1/1 0/16]
r 0.007572911 _3_ MAC  --- 0 ARP 28 [0 ffffffff 1 806] ------- [REQUEST 1/1 0/16]
r 0.007572942 _16_ MAC  --- 0 ARP 28 [0 ffffffff 1 806] ------- [REQUEST 1/1 0/16]
s 0.007727267 _2_ RTR  --- 0 AODV 48 [0 ffffffff 10 800] ------- [2:255 -1:255 28 0] [0x2 3 1 [1 0] [17 4]] (REQUEST)
r 0.007867215 _13_ MAC  --- 0 AODV 48 [0 ffffffff b 800] ------- [11:255 -1:255 28 0] [0x2 3 1 [1 0] [17 4]] (REQUEST)
D 0.007867411 _18_ MAC  COL 0 AODV 106 [0 ffffffff b 800] ------- [11:255 -1:255 28 0] [0x2 3 1 [1 0] [17 4]] (REQUEST)
D 0.007867549 _19_ MAC  COL 0 AODV 106 [0 ffffffff b 800] ------- [11:255 -1:255 28 0] [0x2 3 1 [1 0] [17 4]] (REQUEST)
r 0.007892215 _13_ RTR  --- 0 AODV 48 [0 ffffffff b 800] ------- [11:255 -1:255 28 0] [0x2 3 1 [1 0] [17 4]] (REQUEST)
s 0.008000000 _5_ AGT  --- 4 cbr 1000 [0 0 0 0] ------- [5:0 5:1 32 0] [1] 0 0
r 0.008000000 _5_ AGT  --- 4 cbr 1000 [0 0 0 0] ------- [5:0 5:1 32 0] [1] 0 0
s 0.008000000 _6_ AGT  --- 5 cbr 1000 [0 0 0 0] ------- [6:0 6:1 32 0] [1] 0 0
r 0.008000000 _6_ AGT  --- 5 cbr 1000 [0 0 0 0] ------- [6:0 6:1 32 0] [1] 0 0
s 0.008000000 _4_ AGT  --- 6 cbr 1000 [0 0 0 0] ------- [4:0 0:0 32 0] [1] 0 0
r 0.008000000 _4_ RTR  --- 6 cbr 1000 [0 0 0 0] ------- [4:0 0:0 32 0] [1] 0 0
s 0.008000000 _17_ AGT  --- 7 cbr 1000 [0 0 0 0] ------- [17:0 1:0 32 0] [1] 0 0
r 0.008000000 _17_ RTR  --- 7 cbr 1000 [0 0 0 0] ------- [17:0 1:0 32 0] [1] 0 0
s 0.008562222 _16_ MAC  --- 0 RTS 44 [52e 1 10 0] 
r 0.008914978 _1_ MAC  --- 0 RTS 44 [52e 1 10 0] 
s 0.008924978 _1_ MAC  --- 0 CTS 38 [3f4 10 0 0] 
s 0.008980291 _19_ RTR  --- 0 AODV 48 [0 ffffffff 11 800] ------- [19:255 -1:255 29 0] [0x2 2 1 [1 0] [17 4]] (REQUEST)
r 0.009229734 _16_ MAC  --- 0 CTS 38 [3f4 10 0 0] 
s 0.009239734 _16_ MAC  --- 0 ARP 86 [13a 1 10 806] ------- [REPLY 16/16 1/1]
s 0.009573364 _9_ RTR  --- 0 AODV 48 [0 ffffffff 4 800] ------- [9:255 -1:255 29 0] [0x2 2 1 [0 0] [4 4]] (REQUEST)
r 0.009928490 _1_ MAC  --- 0 ARP 28 [13a 1 10 806] ------- [REPLY 16/16 1/1]
s 0.009938490 _1_ MAC  --- 0 ACK 38 [0 10 0 0] 
r 0.010243246 _16_ MAC  --- 0 ACK 38 [0 10 0 0] 
s 0.010312490 _1_ MAC  --- 0 RTS 44 [5ae 10 1 0] 
r 0.010665246 _16_ MAC  --- 0 RTS 44 [5ae 10 1 0] 
s 0.010675246 _16_ MAC  --- 0 CTS 38 [474 1 0 0] 
r 0.010980003 _1_ MAC  --- 0 CTS 38 [474 1 0 0] 
s 0.010990003 _1_ MAC  --- 0 AODV 102 [13a 10 1 800] ------- [1:255 17:255 30 16] [0x4 1 [1 4] 10.000000] (REPLY)
r 0.011806759 _16_ MAC  --- 0 AODV 44 [13a 10 1 800] ------- [1:255 17:255 30 16] [0x4 1 [1 4] 10.000000] (REPLY)
s 0.011816759 _16_ MAC  --- 0 ACK 38 [0 1 0 0] 
r 0.011831759 _16_ RTR  --- 0 AODV 44 [13a 10 1 800] ------- [1:255 17:255 30 16] [0x4 1 [1 4] 10.000000] (REPLY)
f 0.011831759 _16_ RTR  --- 0 AODV 44 [13a 10 1 800] ------- [1:255 17:255 29 17] [0x4 2 [1 4] 10.000000] (REPLY)
r 0.012121515 _1_ MAC  --- 0 ACK 38 [0 1 0 0] 
s 0.012390759 _16_ MAC  --- 0 ARP 86 [0 ffffffff 10 806] ------- [REQUEST 16/16 0/17]
s 0.012989609 _3_ RTR  --- 0 AODV 48 [0 ffffffff 10 800] ------- [3:255 -1:255 28 0] [0x2 3 1 [1 0] [17 4]] (REQUEST)
r 0.013079261 _3_ MAC  --- 0 ARP 28 [0 ffffffff 10 806] ------- [REQUEST 16/16 0/17]
r 0.013079432 _19_ MAC  --- 0 ARP 28 [0 ffffffff 10 806] ------- [REQUEST 16/16 0/17]
r 0.013079455 _17_ MAC  --- 0 ARP 28 [0 ffffffff 10 806] ------- [REQUEST 16/16 0/17]
r 0.013079513 _2_ MAC  --- 0 ARP 28 [0 ffffffff 10 806] ------- [REQUEST 16/16 0/17]
r 0.013079515 _1_ MAC  --- 0 ARP 28 [0 ffffffff 10 806] ------- [REQUEST 16/16 0/17]
s 0.013169432 _19_ MAC  --- 0 AODV 106 [0 ffffffff 13 800] ------- [19:255 -1:255 29 0] [0x2 2 1 [1 0] [17 4]] (REQUEST)
s 0.013169513 _2_ MAC  --- 0 AODV 106 [0 ffffffff 2 800] ------- [2:255 -1:255 28 0] [0x2 3 1 [1 0] [17 4]] (REQUEST)
D 0.013170268 _16_ MAC  COL 0 AODV 106 [0 ffffffff 13 800] ------- [19:255 -1:255 29 0] [0x2 2 1 [1 0] [17 4]] (REQUEST)
D 0.013170441 _3_ MAC  COL 0 AODV 106 [0 ffffffff 2 800] ------- [2:255 -1:255 28 0] [0x2 3 1 [1 0] [17 4]] (REQUEST)
D 0.013170462 _12_ MAC  COL 0 AODV 106 [0 ffffffff 2 800] ------- [2:255 -1:255 28 0] [0x2 3 1 [1 0] [17 4]] (REQUEST)
D 0.013170652 _11_ MAC  COL 0 AODV 106 [0 ffffffff 13 800] ------- [19:255 -1:255 29 0] [0x2 2 1 [1 0] [17 4]] (REQUEST)
D 0.013170763 _17_ MAC  COL 0 AODV 106 [0 ffffffff 13 800] ------- [19:255 -1:255 29 0] [0x2 2 1 [1 0] [17 4]] (REQUEST)
r 0.014017795 _18_ MAC  --- 0 AODV 48 [0 ffffffff 13 800] ------- [19:255 -1:255 29 0] [0x2 2 1 [1 0] [17 4]] (REQUEST)
D 0.014018268 _16_ MAC  COL 0 AODV 106 [0 ffffffff 2 800] ------- [2:255 -1:255 28 0] [0x2 3 1 [1 0] [17 4]] (REQUEST)
r 0.014018274 _9_ MAC  --- 0 AODV 48 [0 ffffffff 2 800] ------- [2:255 -1:255 28 0] [0x2 3 1 [1 0] [17 4]] (REQUEST)
r 0.014042795 _18_ RTR  --- 0 AODV 48 [0 ffffffff 13 800] ------- [19:255 -1:255 29 0] [0x2 2 1 [1 0] [17 4]] (REQUEST)
r 0.014043274 _9_ RTR  --- 0 AODV 48 [0 ffffffff 2 800] ------- [2:255 -1:255 28 0] [0x2 3 1 [1 0] [17 4]] (REQUEST)
s 0.014572441 _3_ MAC  --- 0 AODV 106 [0 ffffffff 3 800] ------- [3:255 -1:255 28 0] [0x2 3 1 [1 0] [17 4]] (REQUEST)
r 0.015420943 _16_ MAC  --- 0 AODV 48 [0 ffffffff 3 800] ------- [3:255 -1:255 28 0] [0x2 3 1 [1 0] [17 4]] (REQUEST)
r 0.015421139 _2_ MAC  --- 0 AODV 48 [0 ffffffff 3 800] ------- [3:255 -1:255 28 0] [0x2 3 1 [1 0] [17 4]] (REQUEST)
r 0.015421166 _1_ MAC  --- 0 AODV 48 [0 ffffffff 3 800] ------- [3:255 -1:255 28 0] [0x2 3 1 [1 0] [17 4]] (REQUEST)
r 0.015421229 _0_ MAC  --- 0 AODV 48 [0 ffffffff 3 800] ------- [3:255 -1:255 28 0] [0x2 3 1 [1 0] [17 4]] (REQUEST)
r 0.015445943 _16_ RTR  --- 0 AODV 48 [0 ffffffff 3 800] ------- [3:255 -1:255 28 0] [0x2 3 1 [1 0] [17 4]] (REQUEST)
r 0.015446139 _2_ RTR  --- 0 AODV 48 [0 ffffffff 3 800] ------- [3:255 -1:255 28 0] [0x2 3 1 [1 0] [17 4]] (REQUEST)
r 0.015446166 _1_ RTR  --- 0 AODV 48 [0 ffffffff 3 800] ------- [3:255 -1:255 28 0] [0x2 3 1 [1 0] [17 4]] (REQUEST)
r 0.015446229 _0_ RTR  --- 0 AODV 48 [0 ffffffff 3 800] ------- [3:255 -1:255 28 0] [0x2 3 1 [1 0] [17 4]] (REQUEST)
s 0.015915354 _9_ MAC  --- 0 AODV 106 [0 ffffffff 9 800] ------- [9:255 -1:255 29 0] [0x2 2 1 [0 0] [4 4]] (REQUEST)
s 0.015962501 _13_ RTR  --- 0 AODV 48 [0 ffffffff b 800] ------- [13:255 -1:255 27 0] [0x2 4 1 [1 0] [17 4]] (REQUEST)
s 0.016000000 _5_ AGT  --- 8 cbr 1000 [0 0 0 0] ------- [5:0 5:1 32 0] [2] 0 0
r 0.016000000 _5_ AGT  --- 8 cbr 1000 [0 0 0 0] ------- [5:0 5:1 32 0] [2] 0 0
s 0.016000000 _6_ AGT  --- 9 cbr 1000 [0 0 0 0] ------- [6:0 6:1 32 0] [2] 0 0
r 0.016000000 _6_ AGT  --- 9 cbr 1000 [0 0 0 0] ------- [6:0 6:1 32 0] [2] 0 0
s 0.016000000 _4_ AGT  --- 10 cbr 1000 [0 0 0 0] ------- [4:0 0:0 32 0] [2] 0 0
r 0.016000000 _4_ RTR  --- 10 cbr 1000 [0 0 0 0] ------- [4:0 0:0 32 0] [2] 0 0
s 0.016000000 _17_ AGT  --- 11 cbr 1000 [0 0 0 0] ------- [17:0 1:0 32 0] [2] 0 0
r 0.016000000 _17_ RTR  --- 11 cbr 1000 [0 0 0 0] ------- [17:0 1:0 32 0] [2] 0 0
s 0.016075639 _17_ MAC  --- 0 RTS 44 [52e 10 11 0] 
D 0.016076335 _16_ MAC  COL 0 RTS 44 [52e 10 11 0] 
r 0.016763958 _4_ MAC  --- 0 AODV 48 [0 ffffffff 9 800] ------- [9:255 -1:255 29 0] [0x2 2 1 [0 0] [4 4]] (REQUEST)
D 0.016764116 _2_ MAC  COL 0 AODV 106 [0 ffffffff 9 800] ------- [9:255 -1:255 29 0] [0x2 2 1 [0 0] [4 4]] (REQUEST)
r 0.016764185 _0_ MAC  --- 0 AODV 48 [0 ffffffff 9 800] ------- [9:255 -1:255 29 0] [0x2 2 1 [0 0] [4 4]] (REQUEST)
r 0.016788958 _4_ RTR  --- 0 AODV 48 [0 ffffffff 9 800] ------- [9:255 -1:255 29 0] [0x2 2 1 [0 0] [4 4]] (REQUEST)
r 0.016789185 _0_ RTR  --- 0 AODV 48 [0 ffffffff 9 800] ------- [9:255 -1:255 29 0] [0x2 2 1 [0 0] [4 4]] (REQUEST)
s 0.016789185 _0_ RTR  --- 0 AODV 44 [0 0 0 0] ------- [0:255 4:255 30 9] [0x4 1 [0 4] 10.000000] (REPLY)
s 0.017044185 _0_ MAC  --- 0 ARP 86 [0 ffffffff 0 806] ------- [REQUEST 0/0 0/9]
s 0.017319051 _13_ MAC  --- 0 AODV 106 [0 ffffffff d 800] ------- [13:255 -1:255 27 0] [0x2 4 1 [1 0] [17 4]] (REQUEST)
r 0.017732973 _3_ MAC  --- 0 ARP 28 [0 ffffffff 0 806] ------- [REQUEST 0/0 0/9]
r 0.017733016 _9_ MAC  --- 0 ARP 28 [0 ffffffff 0 806] ------- [REQUEST 0/0 0/9]
r 0.018167440 _11_ MAC  --- 0 AODV 48 [0 ffffffff d 800] ------- [13:255 -1:255 27 0] [0x2 4 1 [1 0] [17 4]] (REQUEST)
r 0.018167603 _15_ MAC  --- 0 AODV 48 [0 ffffffff d 800] ------- [13:255 -1:255 27 0] [0x2 4 1 [1 0] [17 4]] (REQUEST)
r 0.018167746 _14_ MAC  --- 0 AODV 48 [0 ffffffff d 800] ------- [13:255 -1:255 27 0] [0x2 4 1 [1 0] [17 4]] (REQUEST)
D 0.018167811 _12_ MAC  COL 0 AODV 106 [0 ffffffff d 800] ------- [13:255 -1:255 27 0] [0x2 4 1 [1 0] [17 4]] (REQUEST)
r 0.018192440 _11_ RTR  --- 0 AODV 48 [0 ffffffff d 800] ------- [13:255 -1:255 27 0] [0x2 4 1 [1 0] [17 4]] (REQUEST)
r 0.018192603 _15_ RTR  --- 0 AODV 48 [0 ffffffff d 800] ------- [13:255 -1:255 27 0] [0x2 4 1 [1 0] [17 4]] (REQUEST)
r 0.018192746 _14_ RTR  --- 0 AODV 48 [0 ffffffff d 800] ------- [13:255 -1:255 27 0] [0x2 4 1 [1 0] [17 4]] (REQUEST)
s 0.018642748 _9_ MAC  --- 0 RTS 44 [52e 0 9 0] 
r 0.018995579 _0_ MAC  --- 0 RTS 44 [52e 0 9 0] 
s 0.019005579 _0_ MAC  --- 0 CTS 38 [3f4 9 0 0] 
s 0.019102623 _17_ MAC  --- 0 RTS 44 [52e 10 11 0] 
r 0.019310410 _9_ MAC  --- 0 CTS 38 [3f4 9 0 0] 
s 0.019320410 _9_ MAC  --- 0 ARP 86 [13a 0 9 806] ------- [REPLY 9/9 0/0]
D 0.019455320 _16_ MAC  COL 0 RTS 44 [52e 10 11 0] 
r 0.020009240 _0_ MAC  --- 0 ARP 28 [13a 0 9 806] ------- [REPLY 9/9 0/0]
s 0.020019240 _0_ MAC  --- 0 ACK 38 [0 9 0 0] 
r 0.020324071 _9_ MAC  --- 0 ACK 38 [0 9 0 0] 
s 0.020433240 _0_ MAC  --- 0 RTS 44 [5ae 9 0 0] 
s 0.020762623 _17_ MAC  --- 0 RTS 44 [52e 10 11 0] 
r 0.020786071 _9_ MAC  --- 0 RTS 44 [5ae 9 0 0] 
s 0.020796071 _9_ MAC  --- 0 CTS 38 [474 0 0 0] 
r 0.021100902 _0_ MAC  --- 0 CTS 38 [474 0 0 0] 
s 0.021110902 _0_ MAC  --- 0 AODV 102 [13a 9 0 800] ------- [0:255 4:255 30 9] [0x4 1 [0 4] 10.000000] (REPLY)
D 0.021115320 _16_ MAC  COL 0 RTS 44 [52e 10 11 0] 
r 0.021927732 _9_ MAC  --- 0 AODV 44 [13a 9 0 800] ------- [0:255 4:255 30 9] [0x4 1 [0 4] 10.000000] (REPLY)
s 0.021937732 _9_ MAC  --- 0 ACK 38 [0 0 0 0] 
r 0.021952732 _9_ RTR  --- 0 AODV 44 [13a 9 0 800] ------- [0:255 4:255 30 9] [0x4 1 [0 4] 10.000000] (REPLY)
f 0.021952732 _9_ RTR  --- 0 AODV 44 [13a 9 0 800] ------- [0:255 4:255 29 4] [0x4 2 [0 4] 10.000000] (REPLY)
r 0.022242563 _0_ MAC  --- 0 ACK 38 [0 0 0 0] 
s 0.022371732 _9_ MAC  --- 0 ARP 86 [0 ffffffff 9 806] ------- [REQUEST 9/9 0/4]
s 0.022554340 _9_ RTR  --- 0 AODV 48 [0 ffffffff 2 800] ------- [9:255 -1:255 27 0] [0x2 4 1 [1 0] [17 4]] (REQUEST)
r 0.023060336 _4_ MAC  --- 0 ARP 28 [0 ffffffff 9 806] ------- [REQUEST 9/9 0/4]
r 0.023060493 _2_ MAC  --- 0 ARP 28 [0 ffffffff 9 806] ------- [REQUEST 9/9 0/4]
r 0.023060563 _0_ MAC  --- 0 ARP 28 [0 ffffffff 9 806] ------- [REQUEST 9/9 0/4]
s 0.023068548 _0_ RTR  --- 0 AODV 48 [0 ffffffff 3 800] ------- [0:255 -1:255 27 0] [0x2 4 1 [1 0] [17 4]] (REQUEST)
s 0.023295336 _4_ MAC  --- 0 RTS 44 [52e 9 4 0] 
r 0.023647939 _9_ MAC  --- 0 RTS 44 [52e 9 4 0] 
s 0.023657939 _9_ MAC  --- 0 CTS 38 [3f4 4 0 0] 
r 0.023962542 _4_ MAC  --- 0 CTS 38 [3f4 4 0 0] 
s 0.023972542 _4_ MAC  --- 0 ARP 86 [13a 9 4 806] ------- [REPLY 4/4 9/9]
s 0.024000000 _5_ AGT  --- 12 cbr 1000 [0 0 0 0] ------- [5:0 5:1 32 0] [3] 0 0
r 0.024000000 _5_ AGT  --- 12 cbr 1000 [0 0 0 0] ------- [5:0 5:1 32 0] [3] 0 0
s 0.024000000 _6_ AGT  --- 13 cbr 1000 [0 0 0 0] ------- [6:0 6:1 32 0] [3] 0 0
r 0.024000000 _6_ AGT  --- 13 cbr 1000 [0 0 0 0] ------- [6:0 6:1 32 0] [3] 0 0
s 0.024000000 _4_ AGT  --- 14 cbr 1000 [0 0 0 0] ------- [4:0 0:0 32 0] [3] 0 0
r 0.024000000 _4_ RTR  --- 14 cbr 1000 [0 0 0 0] ------- [4:0 0:0 32 0] [3] 0 0
s 0.024000000 _17_ AGT  --- 15 cbr 1000 [0 0 0 0] ------- [17:0 1:0 32 0] [3] 0 0
r 0.024000000 _17_ RTR  --- 15 cbr 1000 [0 0 0 0] ------- [17:0 1:0 32 0] [3] 0 0
r 0.024661146 _9_ MAC  --- 0 ARP 28 [13a 9 4 806] ------- [REPLY 4/4 9/9]
s 0.024671146 _9_ MAC  --- 0 ACK 38 [0 4 0 0] 
r 0.024975749 _4_ MAC  --- 0 ACK 38 [0 4 0 0] 
s 0.025125146 _9_ MAC  --- 0 AODV 106 [0 ffffffff 9 800] ------- [9:255 -1:255 27 0] [0x2 4 1 [1 0] [17 4]] (REQUEST)
s 0.025682623 _17_ MAC  --- 0 RTS 44 [52e 10 11 0] 
D 0.025683874 _2_ MAC  COL 0 AODV 106 [0 ffffffff 9 800] ------- [9:255 -1:255 27 0] [0x2 4 1 [1 0] [17 4]] (REQUEST)
r 0.025973749 _4_ MAC  --- 0 AODV 48 [0 ffffffff 9 800] ------- [9:255 -1:255 27 0] [0x2 4 1 [1 0] [17 4]] (REQUEST)
r 0.025973976 _0_ MAC  --- 0 AODV 48 [0 ffffffff 9 800] ------- [9:255 -1:255 27 0] [0x2 4 1 [1 0] [17 4]] (REQUEST)
r 0.025998749 _4_ RTR  --- 0 AODV 48 [0 ffffffff 9 800] ------- [9:255 -1:255 27 0] [0x2 4 1 [1 0] [17 4]] (REQUEST)
r 0.025998976 _0_ RTR  --- 0 AODV 48 [0 ffffffff 9 800] ------- [9:255 -1:255 27 0] [0x2 4 1 [1 0] [17 4]] (REQUEST)
D 0.026035320 _16_ MAC  COL 0 RTS 44 [52e 10 11 0] 
s 0.026223976 _0_ MAC  --- 0 AODV 106 [0 ffffffff 0 800] ------- [0:255 -1:255 27 0] [0x2 4 1 [1 0] [17 4]] (REQUEST)
s 0.026542623 _17_ MAC  --- 0 RTS 44 [52e 10 11 0] 
D 0.026543320 _16_ MAC  COL 0 RTS 44 [52e 10 11 0] 
D 0.027072765 _3_ MAC  COL 0 AODV 106 [0 ffffffff 0 800] ------- [0:255 -1:255 27 0] [0x2 4 1 [1 0] [17 4]] (REQUEST)
r 0.027072807 _9_ MAC  --- 0 AODV 48 [0 ffffffff 0 800] ------- [0:255 -1:255 27 0] [0x2 4 1 [1 0] [17 4]] (REQUEST)
r 0.027097807 _9_ RTR  --- 0 AODV 48 [0 ffffffff 0 800] ------- [0:255 -1:255 27 0] [0x2 4 1 [1 0] [17 4]] (REQUEST)
s 0.027106224 _14_ RTR  --- 0 AODV 48 [0 ffffffff d 800] ------- [14:255 -1:255 26 0] [0x2 5 1 [1 0] [17 4]] (REQUEST)
s 0.027341224 _14_ MAC  --- 0 AODV 106 [0 ffffffff e 800] ------- [14:255 -1:255 26 0] [0x2 5 1 [1 0] [17 4]] (REQUEST)
s 0.027402807 _9_ MAC  --- 0 RTS 44 [5ae 4 9 0] 
s 0.027655253 _15_ RTR  --- 0 AODV 48 [0 ffffffff d 800] ------- [15:255 -1:255 26 0] [0x2 5 1 [1 0] [17 4]] (REQUEST)
r 0.027755411 _4_ MAC  --- 0 RTS 44 [5ae 4 9 0] 
s 0.027765411 _4_ MAC  --- 0 CTS 38 [474 9 0 0] 
r 0.028070014 _9_ MAC  --- 0 CTS 38 [474 9 0 0] 
s 0.028080014 _9_ MAC  --- 0 AODV 102 [13a 4 9 800] ------- [0:255 4:255 29 4] [0x4 2 [0 4] 10.000000] (REPLY)
r 0.028189710 _15_ MAC  --- 0 AODV 48 [0 ffffffff e 800] ------- [14:255 -1:255 26 0] [0x2 5 1 [1 0] [17 4]] (REQUEST)
r 0.028189919 _13_ MAC  --- 0 AODV 48 [0 ffffffff e 800] ------- [14:255 -1:255 26 0] [0x2 5 1 [1 0] [17 4]] (REQUEST)
r 0.028189953 _10_ MAC  --- 0 AODV 48 [0 ffffffff e 800] ------- [14:255 -1:255 26 0] [0x2 5 1 [1 0] [17 4]] (REQUEST)
r 0.028214710 _15_ RTR  --- 0 AODV 48 [0 ffffffff e 800] ------- [14:255 -1:255 26 0] [0x2 5 1 [1 0] [17 4]] (REQUEST)
r 0.028214919 _13_ RTR  --- 0 AODV 48 [0 ffffffff e 800] ------- [14:255 -1:255 26 0] [0x2 5 1 [1 0] [17 4]] (REQUEST)
r 0.028214953 _10_ RTR  --- 0 AODV 48 [0 ffffffff e 800] ------- [14:255 -1:255 26 0] [0x2 5 1 [1 0] [17 4]] (REQUEST)
r 0.028896617 _4_ MAC  --- 0 AODV 44 [13a 4 9 800] ------- [0:255 4:255 29 4] [0x4 2 [0 4] 10.000000] (REPLY)
s 0.028906617 _4_ MAC  --- 0 ACK 38 [0 9 0 0] 
r 0.028921617 _4_ RTR  --- 0 AODV 44 [13a 4 9 800] ------- [0:255 4:255 29 4] [0x4 2 [0 4] 10.000000] (REPLY)
s 0.028921617 _4_ RTR  --- 2 cbr 1020 [0 0 0 0] ------- [4:0 0:0 30 9] [0] 0 0
r 0.029211221 _9_ MAC  --- 0 ACK 38 [0 9 0 0] 
s 0.029500617 _4_ MAC  --- 0 RTS 44 [242e 9 4 0] 
r 0.029853221 _9_ MAC  --- 0 RTS 44 [242e 9 4 0] 
s 0.029863221 _9_ MAC  --- 0 CTS 38 [22f4 4 0 0] 
s 0.030077096 _10_ RTR  --- 0 AODV 48 [0 ffffffff e 800] ------- [10:255 -1:255 25 0] [0x2 6 1 [1 0] [17 4]] (REQUEST)
r 0.030167824 _4_ MAC  --- 0 CTS 38 [22f4 4 0 0] 
s 0.030177824 _4_ MAC  --- 2 cbr 1078 [13a 9 4 800] ------- [4:0 0:0 30 9] [0] 0 0
s 0.031446969 _4_ RTR  --- 0 AODV 48 [0 ffffffff 9 800] ------- [4:255 -1:255 26 0] [0x2 5 1 [1 0] [17 4]] (REQUEST)
s 0.032000000 _5_ AGT  --- 16 cbr 1000 [0 0 0 0] ------- [5:0 5:1 32 0] [4] 0 0
r 0.032000000 _5_ AGT  --- 16 cbr 1000 [0 0 0 0] ------- [5:0 5:1 32 0] [4] 0 0
s 0.032000000 _6_ AGT  --- 17 cbr 1000 [0 0 0 0] ------- [6:0 6:1 32 0] [4] 0 0
r 0.032000000 _6_ AGT  --- 17 cbr 1000 [0 0 0 0] ------- [6:0 6:1 32 0] [4] 0 0
s 0.032000000 _4_ AGT  --- 18 cbr 1000 [0 0 0 0] ------- [4:0 0:0 32 0] [4] 0 0
r 0.032000000 _4_ RTR  --- 18 cbr 1000 [0 0 0 0] ------- [4:0 0:0 32 0] [4] 0 0
s 0.032000000 _17_ AGT  --- 19 cbr 1000 [0 0 0 0] ------- [17:0 1:0 32 0] [4] 0 0
r 0.032000000 _17_ RTR  --- 19 cbr 1000 [0 0 0 0] ------- [17:0 1:0 32 0] [4] 0 0
s 0.032000000 _4_ RTR  --- 18 cbr 1020 [0 0 0 0] ------- [4:0 0:0 30 9] [4] 0 0
r 0.038802428 _9_ MAC  --- 2 cbr 1020 [13a 9 4 800] ------- [4:0 0:0 30 9] [0] 1 0
s 0.038812428 _9_ MAC  --- 0 ACK 38 [0 4 0 0] 
r 0.038827428 _9_ RTR  --- 2 cbr 1020 [13a 9 4 800] ------- [4:0 0:0 30 9] [0] 1 0
f 0.038827428 _9_ RTR  --- 2 cbr 1020 [13a 9 4 800] ------- [4:0 0:0 29 0] [0] 1 0
s 0.038921617 _4_ RTR  --- 6 cbr 1020 [0 0 0 0] ------- [4:0 0:0 30 9] [1] 0 0
r 0.039117031 _4_ MAC  --- 0 ACK 38 [0 4 0 0] 
s 0.039187031 _4_ MAC  --- 0 AODV 106 [0 ffffffff 4 800] ------- [4:255 -1:255 26 0] [0x2 5 1 [1 0] [17 4]] (REQUEST)
s 0.039262623 _17_ MAC  --- 0 RTS 44 [52e 10 11 0] 
r 0.039615320 _16_ MAC  --- 0 RTS 44 [52e 10 11 0] 
s 0.039625320 _16_ MAC  --- 0 CTS 38 [3f4 11 0 0] 
r 0.039930016 _17_ MAC  --- 0 CTS 38 [3f4 11 0 0] 
s 0.039940016 _17_ MAC  --- 0 ARP 86 [13a 10 11 806] ------- [REPLY 17/17 16/16]
s 0.040000000 _5_ AGT  --- 20 cbr 1000 [0 0 0 0] ------- [5:0 5:1 32 0] [5] 0 0
r 0.040000000 _5_ AGT  --- 20 cbr 1000 [0 0 0 0] ------- [5:0 5:1 32 0] [5] 0 0
s 0.040000000 _6_ AGT  --- 21 cbr 1000 [0 0 0 0] ------- [6:0 6:1 32 0] [5] 0 0
r 0.040000000 _6_ AGT  --- 21 cbr 1000 [0 0 0 0] ------- [6:0 6:1 32 0] [5] 0 0
s 0.040000000 _4_ AGT  --- 22 cbr 1000 [0 0 0 0] ------- [4:0 0:0 32 0] [5] 0 0
r 0.040000000 _4_ RTR  --- 22 cbr 1000 [0 0 0 0] ------- [4:0 0:0 32 0] [5] 0 0
s 0.040000000 _17_ AGT  --- 23 cbr 1000 [0 0 0 0] ------- [17:0 1:0 32 0] [5] 0 0
r 0.040000000 _17_ RTR  --- 23 cbr 1000 [0 0 0 0] ------- [17:0 1:0 32 0] [5] 0 0
s 0.040000000 _4_ RTR  --- 22 cbr 1020 [0 0 0 0] ------- [4:0 0:0 30 9] [5] 0 0
r 0.040035634 _9_ MAC  --- 0 AODV 48 [0 ffffffff 4 800] ------- [4:255 -1:255 26 0] [0x2 5 1 [1 0] [17 4]] (REQUEST)
r 0.040060634 _9_ RTR  --- 0 AODV 48 [0 ffffffff 4 800] ------- [4:255 -1:255 26 0] [0x2 5 1 [1 0] [17 4]] (REQUEST)
s 0.040404616 _9_ MAC  --- 0 RTS 44 [242e 0 9 0] 
r 0.040628712 _16_ MAC  --- 0 ARP 28 [13a 10 11 806] ------- [REPLY 17/17 16/16]
s 0.040638712 _16_ MAC  --- 0 ACK 38 [0 11 0 0] 
D 0.040639999 _0_ MAC  COL 0 RTS 44 [242e 0 9 0] 
r 0.040943409 _17_ MAC  --- 0 ACK 38 [0 11 0 0] 
s 0.041398008 _9_ MAC  --- 0 RTS 44 [242e 0 9 0] 
r 0.041750839 _0_ MAC  --- 0 RTS 44 [242e 0 9 0] 
s 0.041760839 _0_ MAC  --- 0 CTS 38 [22f4 9 0 0] 
r 0.042065670 _9_ MAC  --- 0 CTS 38 [22f4 9 0 0] 
s 0.042075670 _9_ MAC  --- 2 cbr 1078 [13a 0 9 800] ------- [4:0 0:0 29 0] [0] 1 0
s 0.048000000 _5_ AGT  --- 24 cbr 1000 [0 0 0 0] ------- [5:0 5:1 32 0] [6] 0 0
r 0.048000000 _5_ AGT  --- 24 cbr 1000 [0 0 0 0] ------- [5:0 5:1 32 0] [6] 0 0
s 0.048000000 _6_ AGT  --- 25 cbr 1000 [0 0 0 0] ------- [6:0 6:1 32 0] [6] 0 0
r 0.048000000 _6_ AGT  --- 25 cbr 1000 [0 0 0 0] ------- [6:0 6:1 32 0] [6] 0 0
s 0.048000000 _4_ AGT  --- 26 cbr 1000 [0 0 0 0] ------- [4:0 0:0 32 0] [6] 0 0
r 0.048000000 _4_ RTR  --- 26 cbr 1000 [0 0 0 0] ------- [4:0 0:0 32 0] [6] 0 0
s 0.048000000 _17_ AGT  --- 27 cbr 1000 [0 0 0 0] ------- [17:0 1:0 32 0] [6] 0 0
r 0.048000000 _17_ RTR  --- 27 cbr 1000 [0 0 0 0] ------- [17:0 1:0 32 0] [6] 0 0
s 0.048000000 _4_ RTR  --- 26 cbr 1020 [0 0 0 0] ------- [4:0 0:0 30 9] [6] 0 0
s 0.048921617 _4_ RTR  --- 10 cbr 1020 [0 0 0 0] ------- [4:0 0:0 30 9] [2] 0 0
r 0.050700500 _0_ MAC  --- 2 cbr 1020 [13a 0 9 800] ------- [4:0 0:0 29 0] [0] 2 0
s 0.050710500 _0_ MAC  --- 0 ACK 38 [0 9 0 0] 
r 0.050725500 _0_ AGT  --- 2 cbr 1020 [13a 0 9 800] ------- [4:0 0:0 29 0] [0] 2 0
r 0.051015331 _9_ MAC  --- 0 ACK 38 [0 9 0 0] 
s 0.051155177 _15_ MAC  --- 0 AODV 106 [0 ffffffff f 800] ------- [15:255 -1:255 26 0] [0x2 5 1 [1 0] [17 4]] (REQUEST)
r 0.052003663 _14_ MAC  --- 0 AODV 48 [0 ffffffff f 800] ------- [15:255 -1:255 26 0] [0x2 5 1 [1 0] [17 4]] (REQUEST)
r 0.052003672 _10_ MAC  --- 0 AODV 48 [0 ffffffff f 800] ------- [15:255 -1:255 26 0] [0x2 5 1 [1 0] [17 4]] (REQUEST)
r 0.052003685 _12_ MAC  --- 0 AODV 48 [0 ffffffff f 800] ------- [15:255 -1:255 26 0] [0x2 5 1 [1 0] [17 4]] (REQUEST)
r 0.052003729 _13_ MAC  --- 0 AODV 48 [0 ffffffff f 800] ------- [15:255 -1:255 26 0] [0x2 5 1 [1 0] [17 4]] (REQUEST)
r 0.052028663 _14_ RTR  --- 0 AODV 48 [0 ffffffff f 800] ------- [15:255 -1:255 26 0] [0x2 5 1 [1 0] [17 4]] (REQUEST)
r 0.052028672 _10_ RTR  --- 0 AODV 48 [0 ffffffff f 800] ------- [15:255 -1:255 26 0] [0x2 5 1 [1 0] [17 4]] (REQUEST)
r 0.052028685 _12_ RTR  --- 0 AODV 48 [0 ffffffff f 800] ------- [15:255 -1:255 26 0] [0x2 5 1 [1 0] [17 4]] (REQUEST)
r 0.052028729 _13_ RTR  --- 0 AODV 48 [0 ffffffff f 800] ------- [15:255 -1:255 26 0] [0x2 5 1 [1 0] [17 4]] (REQUEST)
s 0.052073672 _10_ MAC  --- 0 AODV 106 [0 ffffffff a 800] ------- [10:255 -1:255 25 0] [0x2 6 1 [1 0] [17 4]] (REQUEST)
s 0.052438983 _16_ MAC  --- 0 RTS 44 [5ae 11 10 0] 
r 0.052791679 _17_ MAC  --- 0 RTS 44 [5ae 11 10 0] 
s 0.052801679 _17_ MAC  --- 0 CTS 38 [474 10 0 0] 
r 0.052922167 _15_ MAC  --- 0 AODV 48 [0 ffffffff a 800] ------- [10:255 -1:255 25 0] [0x2 6 1 [1 0] [17 4]] (REQUEST)
r 0.052922373 _12_ MAC  --- 0 AODV 48 [0 ffffffff a 800] ------- [10:255 -1:255 25 0] [0x2 6 1 [1 0] [17 4]] (REQUEST)
r 0.052922401 _14_ MAC  --- 0 AODV 48 [0 ffffffff a 800] ------- [10:255 -1:255 25 0] [0x2 6 1 [1 0] [17 4]] (REQUEST)
r 0.052947167 _15_ RTR  --- 0 AODV 48 [0 ffffffff a 800] ------- [10:255 -1:255 25 0] [0x2 6 1 [1 0] [17 4]] (REQUEST)
r 0.052947373 _12_ RTR  --- 0 AODV 48 [0 ffffffff a 800] ------- [10:255 -1:255 25 0] [0x2 6 1 [1 0] [17 4]] (REQUEST)
r 0.052947401 _14_ RTR  --- 0 AODV 48 [0 ffffffff a 800] ------- [10:255 -1:255 25 0] [0x2 6 1 [1 0] [17 4]] (REQUEST)
r 0.053106375 _16_ MAC  --- 0 CTS 38 [474 10 0 0] 
s 0.053116375 _16_ MAC  --- 0 AODV 102 [13a 11 10 800] ------- [1:255 17:255 29 17] [0x4 2 [1 4] 10.000000] (REPLY)
s 0.053497048 _4_ MAC  --- 0 RTS 44 [242e 9 4 0] 
D 0.053497652 _9_ MAC  COL 0 RTS 44 [242e 9 4 0] 
r 0.053933071 _17_ MAC  --- 0 AODV 44 [13a 11 10 800] ------- [1:255 17:255 29 17] [0x4 2 [1 4] 10.000000] (REPLY)
s 0.053943071 _17_ MAC  --- 0 ACK 38 [0 10 0 0] 
r 0.053958071 _17_ RTR  --- 0 AODV 44 [13a 11 10 800] ------- [1:255 17:255 29 17] [0x4 2 [1 4] 10.000000] (REPLY)
s 0.053958071 _17_ RTR  --- 3 cbr 1020 [0 0 0 0] ------- [17:0 1:0 30 16] [0] 0 0
r 0.054247768 _16_ MAC  --- 0 ACK 38 [0 10 0 0] 
s 0.054397071 _17_ MAC  --- 0 RTS 44 [242e 10 11 0] 
r 0.054749768 _16_ MAC  --- 0 RTS 44 [242e 10 11 0] 
s 0.054759768 _16_ MAC  --- 0 CTS 38 [22f4 11 0 0] 
s 0.054937048 _4_ MAC  --- 0 RTS 44 [242e 9 4 0] 
r 0.055064464 _17_ MAC  --- 0 CTS 38 [22f4 11 0 0] 
s 0.055074464 _17_ MAC  --- 3 cbr 1078 [13a 10 11 800] ------- [17:0 1:0 30 16] [0] 0 0
D 0.055289652 _9_ MAC  COL 0 RTS 44 [242e 9 4 0] 
s 0.056000000 _5_ AGT  --- 28 cbr 1000 [0 0 0 0] ------- [5:0 5:1 32 0] [7] 0 0
r 0.056000000 _5_ AGT  --- 28 cbr 1000 [0 0 0 0] ------- [5:0 5:1 32 0] [7] 0 0
s 0.056000000 _6_ AGT  --- 29 cbr 1000 [0 0 0 0] ------- [6:0 6:1 32 0] [7] 0 0
r 0.056000000 _6_ AGT  --- 29 cbr 1000 [0 0 0 0] ------- [6:0 6:1 32 0] [7] 0 0
s 0.056000000 _4_ AGT  --- 30 cbr 1000 [0 0 0 0] ------- [4:0 0:0 32 0] [7] 0 0
r 0.056000000 _4_ RTR  --- 30 cbr 1000 [0 0 0 0] ------- [4:0 0:0 32 0] [7] 0 0
s 0.056000000 _17_ AGT  --- 31 cbr 1000 [0 0 0 0] ------- [17:0 1:0 32 0] [7] 0 0
r 0.056000000 _17_ RTR  --- 31 cbr 1000 [0 0 0 0] ------- [17:0 1:0 32 0] [7] 0 0
s 0.056000000 _4_ RTR  --- 30 cbr 1020 [0 0 0 0] ------- [4:0 0:0 30 9] [7] 0 0
s 0.056000000 _17_ RTR  --- 31 cbr 1020 [0 0 0 0] ------- [17:0 1:0 30 16] [7] 0 0
s 0.057857048 _4_ MAC  --- 0 RTS 44 [242e 9 4 0] 
r 0.058209652 _9_ MAC  --- 0 RTS 44 [242e 9 4 0] 
s 0.058219652 _9_ MAC  --- 0 CTS 38 [22f4 4 0 0] 
r 0.058524255 _4_ MAC  --- 0 CTS 38 [22f4 4 0 0] 
s 0.058534255 _4_ MAC  --- 18 cbr 1078 [13a 9 4 800] ------- [4:0 0:0 30 9] [4] 0 0
s 0.058921617 _4_ RTR  --- 14 cbr 1020 [0 0 0 0] ------- [4:0 0:0 30 9] [3] 0 0
s 0.060679740 _12_ RTR  --- 0 AODV 48 [0 ffffffff f 800] ------- [12:255 -1:255 25 0] [0x2 6 1 [1 0] [17 4]] (REQUEST)
r 0.063699160 _16_ MAC  --- 3 cbr 1020 [13a 10 11 800] ------- [17:0 1:0 30 16] [0] 1 0
s 0.063709160 _16_ MAC  --- 0 ACK 38 [0 11 0 0] 
r 0.063724160 _16_ RTR  --- 3 cbr 1020 [13a 10 11 800] ------- [17:0 1:0 30 16] [0] 1 0
f 0.063724160 _16_ RTR  --- 3 cbr 1020 [13a 10 11 800] ------- [17:0 1:0 29 1] [0] 1 0
s 0.063958071 _17_ RTR  --- 7 cbr 1020 [0 0 0 0] ------- [17:0 1:0 30 16] [1] 0 0
s 0.064000000 _5_ AGT  --- 32 cbr 1000 [0 0 0 0] ------- [5:0 5:1 32 0] [8] 0 0
r 0.064000000 _5_ AGT  --- 32 cbr 1000 [0 0 0 0] ------- [5:0 5:1 32 0] [8] 0 0
s 0.064000000 _6_ AGT  --- 33 cbr 1000 [0 0 0 0] ------- [6:0 6:1 32 0] [8] 0 0
r 0.064000000 _6_ AGT  --- 33 cbr 1000 [0 0 0 0] ------- [6:0 6:1 32 0] [8] 0 0
s 0.064000000 _4_ AGT  --- 34 cbr 1000 [0 0 0 0] ------- [4:0 0:0 32 0] [8] 0 0
r 0.064000000 _4_ RTR  --- 34 cbr 1000 [0 0 0 0] ------- [4:0 0:0 32 0] [8] 0 0
s 0.064000000 _17_ AGT  --- 35 cbr 1000 [0 0 0 0] ------- [17:0 1:0 32 0] [8] 0 0