s 0.000000000 _5_ AGT  --- 0 cbr 1000 [0 0 0 0] ------- [5:0 5:1 32 0] [0] 0 0
r 0.000000000 _5_ AGT  --- 0 cbr 1000 [0 0 0 0] ------- [5:0 5:1 32 0] [0] 0 0
s 0.000000000 _6_ AGT  --- 1 cbr 1000 [0 0 0 0] ------- [6:0 6:1 32 0] [0] 0 0
r 0.000000000 _6_ AGT  --- 1 cbr 1000 [0 0 0 0] ------- [6:0 6:1 32 0] [0] 0 0
s 0.000000000 _4_ AGT  --- 2 cbr 1000 [0 0 0 0] ------- [4:0 0:0 32 0] [0] 0 0
r 0.000000000 _4_ RTR  --- 2 cbr 1000 [0 0 0 0] ------- [4:0 0:0 32 0] [0] 0 0
s 0.000000000 _17_ AGT  --- 3 cbr 1000 [0 0 0 0] ------- [17:0 1:0 32 0] [0] 0 0
r 0.000000000 _17_ RTR  --- 3 cbr 1000 [0 0 0 0] ------- [17:0 1:0 32 0] [0] 0 0
s 0.000000000 _8_ AGT  --- 4 cbr 1000 [0 0 0 0] ------- [8:0 6:2 32 0] [0] 0 0
r 0.000000000 _8_ RTR  --- 4 cbr 1000 [0 0 0 0] ------- [8:0 6:2 32 0] [0] 0 0
s 0.000000000 _4_ RTR  --- 0 AODV 48 [0 0 0 0] ------- [4:255 -1:255 30 0] [0x2 1 1 [0 0] [4 4]] (REQUEST)
s 0.000000000 _17_ RTR  --- 0 AODV 48 [0 0 0 0] ------- [17:255 -1:255 30 0] [0x2 1 1 [1 0] [17 4]] (REQUEST)
s 0.000000000 _8_ RTR  --- 0 AODV 48 [0 0 0 0] ------- [8:255 -1:255 30 0] [0x2 1 1 [6 0] [8 4]] (REQUEST)
s 0.000115000 _17_ MAC  --- 0 AODV 106 [0 ffffffff 11 800] ------- [17:255 -1:255 30 0] [0x2 1 1 [1 0] [17 4]] (REQUEST)
s 0.000535000 _4_ MAC  --- 0 AODV 106 [0 ffffffff 4 800] ------- [4:255 -1:255 30 0] [0x2 1 1 [0 0] [4 4]] (REQUEST)
s 0.000635000 _8_ MAC  --- 0 AODV 106 [0 ffffffff 8 800] ------- [8:255 -1:255 30 0] [0x2 1 1 [6 0] [8 4]] (REQUEST)
r 0.000963678 _18_ MAC  --- 0 AODV 48 [0 ffffffff 11 800] ------- [17:255 -1:255 30 0] [0x2 1 1 [1 0] [17 4]] (REQUEST)
r 0.000963696 _16_ MAC  --- 0 AODV 48 [0 ffffffff 11 800] ------- [17:255 -1:255 30 0] [0x2 1 1 [1 0] [17 4]] (REQUEST)
r 0.000963736 _19_ MAC  --- 0 AODV 48 [0 ffffffff 11 800] ------- [17:255 -1:255 30 0] [0x2 1 1 [1 0] [17 4]] (REQUEST)
r 0.000988678 _18_ RTR  --- 0 AODV 48 [0 ffffffff 11 800] ------- [17:255 -1:255 30 0] [0x2 1 1 [1 0] [17 4]] (REQUEST)
r 0.000988696 _16_ RTR  --- 0 AODV 48 [0 ffffffff 11 800] ------- [17:255 -1:255 30 0] [0x2 1 1 [1 0] [17 4]] (REQUEST)
r 0.000988736 _19_ RTR  --- 0 AODV 48 [0 ffffffff 11 800] ------- [17:255 -1:255 30 0] [0x2 1 1 [1 0] [17 4]] (REQUEST)
r 0.001383603 _9_ MAC  --- 0 AODV 48 [0 ffffffff 4 800] ------- [4:255 -1:255 30 0] [0x2 1 1 [0 0] [4 4]] (REQUEST)
r 0.001408603 _9_ RTR  --- 0 AODV 48 [0 ffffffff 4 800] ------- [4:255 -1:255 30 0] [0x2 1 1 [0 0] [4 4]] (REQUEST)
r 0.001483479 _5_ MAC  --- 0 AODV 48 [0 ffffffff 8 800] ------- [8:255 -1:255 30 0] [0x2 1 1 [6 0] [8 4]] (REQUEST)
D 0.001483696 _7_ MAC  COL 0 AODV 106 [0 ffffffff 8 800] ------- [8:255 -1:255 30 0] [0x2 1 1 [6 0] [8 4]] (REQUEST)
r 0.001508479 _5_ RTR  --- 0 AODV 48 [0 ffffffff 8 800] ------- [8:255 -1:255 30 0] [0x2 1 1 [6 0] [8 4]] (REQUEST)
s 0.003754621 _9_ RTR  --- 0 AODV 48 [0 ffffffff 4 800] ------- [9:255 -1:255 29 0] [0x2 2 1 [0 0] [4 4]] (REQUEST)
s 0.004069621 _9_ MAC  --- 0 AODV 106 [0 ffffffff 9 800] ------- [9:255 -1:255 29 0] [0x2 2 1 [0 0] [4 4]] (REQUEST)
s 0.004118354 _19_ RTR  --- 0 AODV 48 [0 ffffffff 11 800] ------- [19:255 -1:255 29 0] [0x2 2 1 [1 0] [17 4]] (REQUEST)
s 0.004599269 _5_ RTR  --- 0 AODV 48 [0 ffffffff 8 800] ------- [5:255 -1:255 29 0] [0x2 2 1 [6 0] [8 4]] (REQUEST)
r 0.004918224 _4_ MAC  --- 0 AODV 48 [0 ffffffff 9 800] ------- [9:255 -1:255 29 0] [0x2 2 1 [0 0] [4 4]] (REQUEST)
r 0.004918382 _2_ MAC  --- 0 AODV 48 [0 ffffffff 9 800] ------- [9:255 -1:255 29 0] [0x2 2 1 [0 0] [4 4]] (REQUEST)
r 0.004918452 _0_ MAC  --- 0 AODV 48 [0 ffffffff 9 800] ------- [9:255 -1:255 29 0] [0x2 2 1 [0 0] [4 4]] (REQUEST)
r 0.004943224 _4_ RTR  --- 0 AODV 48 [0 ffffffff 9 800] ------- [9:255 -1:255 29 0] [0x2 2 1 [0 0] [4 4]] (REQUEST)
r 0.004943382 _2_ RTR  --- 0 AODV 48 [0 ffffffff 9 800] ------- [9:255 -1:255 29 0] [0x2 2 1 [0 0] [4 4]] (REQUEST)
r 0.004943452 _0_ RTR  --- 0 AODV 48 [0 ffffffff 9 800] ------- [9:255 -1:255 29 0] [0x2 2 1 [0 0] [4 4]] (REQUEST)
s 0.004943452 _0_ RTR  --- 0 AODV 44 [0 0 0 0] ------- [0:255 4:255 30 9] [0x4 1 [0 4] 10.000000] (REPLY)
s 0.005214269 _5_ MAC  --- 0 AODV 106 [0 ffffffff 5 800] ------- [5:255 -1:255 29 0] [0x2 2 1 [6 0] [8 4]] (REQUEST)
s 0.005373032 _19_ MAC  --- 0 AODV 106 [0 ffffffff 13 800] ------- [19:255 -1:255 29 0] [0x2 2 1 [1 0] [17 4]] (REQUEST)
s 0.005400411 _18_ RTR  --- 0 AODV 48 [0 ffffffff 11 800] ------- [18:255 -1:255 29 0] [0x2 2 1 [1 0] [17 4]] (REQUEST)
r 0.006062748 _8_ MAC  --- 0 AODV 48 [0 ffffffff 5 800] ------- [5:255 -1:255 29 0] [0x2 2 1 [6 0] [8 4]] (REQUEST)
s 0.006081465 _2_ RTR  --- 0 AODV 48 [0 ffffffff 9 800] ------- [2:255 -1:255 28 0] [0x2 3 1 [0 0] [4 4]] (REQUEST)
r 0.006087748 _8_ RTR  --- 0 AODV 48 [0 ffffffff 5 800] ------- [5:255 -1:255 29 0] [0x2 2 1 [6 0] [8 4]] (REQUEST)
r 0.006221395 _18_ MAC  --- 0 AODV 48 [0 ffffffff 13 800] ------- [19:255 -1:255 29 0] [0x2 2 1 [1 0] [17 4]] (REQUEST)
r 0.006221683 _2_ MAC  --- 0 AODV 48 [0 ffffffff 13 800] ------- [19:255 -1:255 29 0] [0x2 2 1 [1 0] [17 4]] (REQUEST)
r 0.006221705 _16_ MAC  --- 0 AODV 48 [0 ffffffff 13 800] ------- [19:255 -1:255 29 0] [0x2 2 1 [1 0] [17 4]] (REQUEST)
r 0.006221754 _11_ MAC  --- 0 AODV 48 [0 ffffffff 13 800] ------- [19:255 -1:255 29 0] [0x2 2 1 [1 0] [17 4]] (REQUEST)
r 0.006221768 _17_ MAC  --- 0 AODV 48 [0 ffffffff 13 800] ------- [19:255 -1:255 29 0] [0x2 2 1 [1 0] [17 4]] (REQUEST)
r 0.006246395 _18_ RTR  --- 0 AODV 48 [0 ffffffff 13 800] ------- [19:255 -1:255 29 0] [0x2 2 1 [1 0] [17 4]] (REQUEST)
r 0.006246683 _2_ RTR  --- 0 AODV 48 [0 ffffffff 13 800] ------- [19:255 -1:255 29 0] [0x2 2 1 [1 0] [17 4]] (REQUEST)
r 0.006246705 _16_ RTR  --- 0 AODV 48 [0 ffffffff 13 800] ------- [19:255 -1:255 29 0] [0x2 2 1 [1 0] [17 4]] (REQUEST)
r 0.006246754 _11_ RTR  --- 0 AODV 48 [0 ffffffff 13 800] ------- [19:255 -1:255 29 0] [0x2 2 1 [1 0] [17 4]] (REQUEST)
r 0.006246768 _17_ RTR  --- 0 AODV 48 [0 ffffffff 13 800] ------- [19:255 -1:255 29 0] [0x2 2 1 [1 0] [17 4]] (REQUEST)
s 0.006431395 _18_ MAC  --- 0 AODV 106 [0 ffffffff 12 800] ------- [18:255 -1:255 29 0] [0x2 2 1 [1 0] [17 4]] (REQUEST)
s 0.006676777 _0_ MAC  --- 0 ARP 86 [0 ffffffff 0 806] ------- [REQUEST 0/0 0/9]
r 0.007279759 _19_ MAC  --- 0 AODV 48 [0 ffffffff 12 800] ------- [18:255 -1:255 29 0] [0x2 2 1 [1 0] [17 4]] (REQUEST)
r 0.007279980 _11_ MAC  --- 0 AODV 48 [0 ffffffff 12 800] ------- [18:255 -1:255 29 0] [0x2 2 1 [1 0] [17 4]] (REQUEST)
r 0.007280073 _17_ MAC  --- 0 AODV 48 [0 ffffffff 12 800] ------- [18:255 -1:255 29 0] [0x2 2 1 [1 0] [17 4]] (REQUEST)
r 0.007304759 _19_ RTR  --- 0 AODV 48 [0 ffffffff 12 800] ------- [18:255 -1:255 29 0] [0x2 2 1 [1 0] [17 4]] (REQUEST)
r 0.007304980 _11_ RTR  --- 0 AODV 48 [0 ffffffff 12 800] ------- [18:255 -1:255 29 0] [0x2 2 1 [1 0] [17 4]] (REQUEST)
r 0.007305073 _17_ RTR  --- 0 AODV 48 [0 ffffffff 12 800] ------- [18:255 -1:255 29 0] [0x2 2 1 [1 0] [17 4]] (REQUEST)
D 0.007365565 _3_ MAC  COL 0 ARP 86 [0 ffffffff 0 806] ------- [REQUEST 0/0 0/9]
D 0.007365608 _9_ MAC  COL 0 ARP 86 [0 ffffffff 0 806] ------- [REQUEST 0/0 0/9]
s 0.007960013 _2_ MAC  --- 0 AODV 106 [0 ffffffff 2 800] ------- [2:255 -1:255 28 0] [0x2 3 1 [0 0] [4 4]] (REQUEST)
s 0.008000000 _5_ AGT  --- 5 cbr 1000 [0 0 0 0] ------- [5:0 5:1 32 0] [1] 0 0
r 0.008000000 _5_ AGT  --- 5 cbr 1000 [0 0 0 0] ------- [5:0 5:1 32 0] [1] 0 0
s 0.008000000 _6_ AGT  --- 6 cbr 1000 [0 0 0 0] ------- [6:0 6:1 32 0] [1] 0 0
r 0.008000000 _6_ AGT  --- 6 cbr 1000 [0 0 0 0] ------- [6:0 6:1 32 0] [1] 0 0
s 0.008000000 _4_ AGT  --- 7 cbr 1000 [0 0 0 0] ------- [4:0 0:0 32 0] [1] 0 0
r 0.008000000 _4_ RTR  --- 7 cbr 1000 [0 0 0 0] ------- [4:0 0:0 32 0] [1] 0 0
s 0.008000000 _17_ AGT  --- 8 cbr 1000 [0 0 0 0] ------- [17:0 1:0 32 0] [1] 0 0
r 0.008000000 _17_ RTR  --- 8 cbr 1000 [0 0 0 0] ------- [17:0 1:0 32 0] [1] 0 0
s 0.008000000 _8_ AGT  --- 9 cbr 1000 [0 0 0 0] ------- [8:0 6:2 32 0] [1] 0 0
r 0.008000000 _8_ RTR  --- 9 cbr 1000 [0 0 0 0] ------- [8:0 6:2 32 0] [1] 0 0
r 0.008808664 _19_ MAC  --- 0 AODV 48 [0 ffffffff 2 800] ------- [2:255 -1:255 28 0] [0x2 3 1 [0 0] [4 4]] (REQUEST)
r 0.008808710 _3_ MAC  --- 0 AODV 48 [0 ffffffff 2 800] ------- [2:255 -1:255 28 0] [0x2 3 1 [0 0] [4 4]] (REQUEST)
r 0.008808717 _12_ MAC  --- 0 AODV 48 [0 ffffffff 2 800] ------- [2:255 -1:255 28 0] [0x2 3 1 [0 0] [4 4]] (REQUEST)
r 0.008808767 _16_ MAC  --- 0 AODV 48 [0 ffffffff 2 800] ------- [2:255 -1:255 28 0] [0x2 3 1 [0 0] [4 4]] (REQUEST)
r 0.008808774 _9_ MAC  --- 0 AODV 48 [0 ffffffff 2 800] ------- [2:255 -1:255 28 0] [0x2 3 1 [0 0] [4 4]] (REQUEST)
s 0.008827634 _11_ RTR  --- 0 AODV 48 [0 ffffffff 13 800] ------- [11:255 -1:255 28 0] [0x2 3 1 [1 0] [17 4]] (REQUEST)
r 0.008833664 _19_ RTR  --- 0 AODV 48 [0 ffffffff 2 800] ------- [2:255 -1:255 28 0] [0x2 3 1 [0 0] [4 4]] (REQUEST)
r 0.008833710 _3_ RTR  --- 0 AODV 48 [0 ffffffff 2 800] ------- [2:255 -1:255 28 0] [0x2 3 1 [0 0] [4 4]] (REQUEST)
r 0.008833717 _12_ RTR  --- 0 AODV 48 [0 ffffffff 2 800] ------- [2:255 -1:255 28 0] [0x2 3 1 [0 0] [4 4]] (REQUEST)
r 0.008833767 _16_ RTR  --- 0 AODV 48 [0 ffffffff 2 800] ------- [2:255 -1:255 28 0] [0x2 3 1 [0 0] [4 4]] (REQUEST)
r 0.008833774 _9_ RTR  --- 0 AODV 48 [0 ffffffff 2 800] ------- [2:255 -1:255 28 0] [0x2 3 1 [0 0] [4 4]] (REQUEST)
s 0.008980251 _16_ RTR  --- 0 AODV 48 [0 ffffffff 11 800] ------- [16:255 -1:255 29 0] [0x2 2 1 [1 0] [17 4]] (REQUEST)
s 0.009095251 _16_ MAC  --- 0 AODV 106 [0 ffffffff 10 800] ------- [16:255 -1:255 29 0] [0x2 2 1 [1 0] [17 4]] (REQUEST)
s 0.009734093 _2_ RTR  --- 0 AODV 48 [0 ffffffff 13 800] ------- [2:255 -1:255 28 0] [0x2 3 1 [1 0] [17 4]] (REQUEST)
r 0.009943753 _3_ MAC  --- 0 AODV 48 [0 ffffffff 10 800] ------- [16:255 -1:255 29 0] [0x2 2 1 [1 0] [17 4]] (REQUEST)
r 0.009943924 _19_ MAC  --- 0 AODV 48 [0 ffffffff 10 800] ------- [16:255 -1:255 29 0] [0x2 2 1 [1 0] [17 4]] (REQUEST)
r 0.009943947 _17_ MAC  --- 0 AODV 48 [0 ffffffff 10 800] ------- [16:255 -1:255 29 0] [0x2 2 1 [1 0] [17 4]] (REQUEST)
r 0.009944005 _2_ MAC  --- 0 AODV 48 [0 ffffffff 10 800] ------- [16:255 -1:255 29 0] [0x2 2 1 [1 0] [17 4]] (REQUEST)
r 0.009944007 _1_ MAC  --- 0 AODV 48 [0 ffffffff 10 800] ------- [16:255 -1:255 29 0] [0x2 2 1 [1 0] [17 4]] (REQUEST)
r 0.009968753 _3_ RTR  --- 0 AODV 48 [0 ffffffff 10 800] ------- [16:255 -1:255 29 0] [0x2 2 1 [1 0] [17 4]] (REQUEST)
r 0.009968924 _19_ RTR  --- 0 AODV 48 [0 ffffffff 10 800] ------- [16:255 -1:255 29 0] [0x2 2 1 [1 0] [17 4]] (REQUEST)
r 0.009968947 _17_ RTR  --- 0 AODV 48 [0 ffffffff 10 800] ------- [16:255 -1:255 29 0] [0x2 2 1 [1 0] [17 4]] (REQUEST)
r 0.009969005 _2_ RTR  --- 0 AODV 48 [0 ffffffff 10 800] ------- [16:255 -1:255 29 0] [0x2 2 1 [1 0] [17 4]] (REQUEST)
r 0.009969007 _1_ RTR  --- 0 AODV 48 [0 ffffffff 10 800] ------- [16:255 -1:255 29 0] [0x2 2 1 [1 0] [17 4]] (REQUEST)
s 0.009969007 _1_ RTR  --- 0 AODV 44 [0 0 0 0] ------- [1:255 17:255 30 16] [0x4 1 [1 4] 10.000000] (REPLY)
s 0.010164007 _1_ MAC  --- 0 ARP 86 [0 ffffffff 1 806] ------- [REQUEST 1/1 0/16]
s 0.010718647 _11_ MAC  --- 0 AODV 106 [0 ffffffff b 800] ------- [11:255 -1:255 28 0] [0x2 3 1 [1 0] [17 4]] (REQUEST)
r 0.010852730 _7_ MAC  --- 0 ARP 28 [0 ffffffff 1 806] ------- [REQUEST 1/1 0/16]
r 0.010852731 _3_ MAC  --- 0 ARP 28 [0 ffffffff 1 806] ------- [REQUEST 1/1 0/16]
r 0.010852763 _16_ MAC  --- 0 ARP 28 [0 ffffffff 1 806] ------- [REQUEST 1/1 0/16]
s 0.011005362 _16_ RTR  --- 0 AODV 48 [0 ffffffff 2 800] ------- [16:255 -1:255 27 0] [0x2 4 1 [0 0] [4 4]] (REQUEST)
r 0.011567036 _13_ MAC  --- 0 AODV 48 [0 ffffffff b 800] ------- [11:255 -1:255 28 0] [0x2 3 1 [1 0] [17 4]] (REQUEST)
D 0.011567232 _18_ MAC  COL 0 AODV 106 [0 ffffffff b 800] ------- [11:255 -1:255 28 0] [0x2 3 1 [1 0] [17 4]] (REQUEST)
D 0.011567370 _19_ MAC  COL 0 AODV 106 [0 ffffffff b 800] ------- [11:255 -1:255 28 0] [0x2 3 1 [1 0] [17 4]] (REQUEST)
r 0.011592036 _13_ RTR  --- 0 AODV 48 [0 ffffffff b 800] ------- [11:255 -1:255 28 0] [0x2 3 1 [1 0] [17 4]] (REQUEST)
s 0.012041785 _2_ MAC  --- 0 AODV 106 [0 ffffffff 2 800] ------- [2:255 -1:255 28 0] [0x2 3 1 [1 0] [17 4]] (REQUEST)
r 0.012890437 _19_ MAC  --- 0 AODV 48 [0 ffffffff 2 800] ------- [2:255 -1:255 28 0] [0x2 3 1 [1 0] [17 4]] (REQUEST)
r 0.012890483 _3_ MAC  --- 0 AODV 48 [0 ffffffff 2 800] ------- [2:255 -1:255 28 0] [0x2 3 1 [1 0] [17 4]] (REQUEST)
r 0.012890490 _12_ MAC  --- 0 AODV 48 [0 ffffffff 2 800] ------- [2:255 -1:255 28 0] [0x2 3 1 [1 0] [17 4]] (REQUEST)
r 0.012890540 _16_ MAC  --- 0 AODV 48 [0 ffffffff 2 800] ------- [2:255 -1:255 28 0] [0x2 3 1 [1 0] [17 4]] (REQUEST)
r 0.012890547 _9_ MAC  --- 0 AODV 48 [0 ffffffff 2 800] ------- [2:255 -1:255 28 0] [0x2 3 1 [1 0] [17 4]] (REQUEST)
r 0.012915437 _19_ RTR  --- 0 AODV 48 [0 ffffffff 2 800] ------- [2:255 -1:255 28 0] [0x2 3 1 [1 0] [17 4]] (REQUEST)
r 0.012915483 _3_ RTR  --- 0 AODV 48 [0 ffffffff 2 800] ------- [2:255 -1:255 28 0] [0x2 3 1 [1 0] [17 4]] (REQUEST)
r 0.012915490 _12_ RTR  --- 0 AODV 48 [0 ffffffff 2 800] ------- [2:255 -1:255 28 0] [0x2 3 1 [1 0] [17 4]] (REQUEST)
r 0.012915540 _16_ RTR  --- 0 AODV 48 [0 ffffffff 2 800] ------- [2:255 -1:255 28 0] [0x2 3 1 [1 0] [17 4]] (REQUEST)
r 0.012915547 _9_ RTR  --- 0 AODV 48 [0 ffffffff 2 800] ------- [2:255 -1:255 28 0] [0x2 3 1 [1 0] [17 4]] (REQUEST)
s 0.013020540 _16_ MAC  --- 0 RTS 44 [52e 1 10 0] 
r 0.013373296 _1_ MAC  --- 0 RTS 44 [52e 1 10 0] 
s 0.013383296 _1_ MAC  --- 0 CTS 38 [3f4 10 0 0] 
r 0.013688052 _16_ MAC  --- 0 CTS 38 [3f4 10 0 0] 
s 0.013698052 _16_ MAC  --- 0 ARP 86 [13a 1 10 806] ------- [REPLY 16/16 1/1]
r 0.014386808 _1_ MAC  --- 0 ARP 28 [13a 1 10 806] ------- [REPLY 16/16 1/1]
s 0.014396808 _1_ MAC  --- 0 ACK 38 [0 10 0 0] 
r 0.014701564 _16_ MAC  --- 0 ACK 38 [0 10 0 0] 
s 0.014950808 _1_ MAC  --- 0 RTS 44 [5ae 10 1 0] 
r 0.015303564 _16_ MAC  --- 0 RTS 44 [5ae 10 1 0] 
s 0.015313564 _16_ MAC  --- 0 CTS 38 [474 1 0 0] 
r 0.015618320 _1_ MAC  --- 0 CTS 38 [474 1 0 0] 
s 0.015628320 _1_ MAC  --- 0 AODV 102 [13a 10 1 800] ------- [1:255 17:255 30 16] [0x4 1 [1 4] 10.000000] (REPLY)
s 0.015634111 _13_ RTR  --- 0 AODV 48 [0 ffffffff b 800] ------- [13:255 -1:255 27 0] [0x2 4 1 [1 0] [17 4]] (REQUEST)
s 0.015756732 _19_ RTR  --- 0 AODV 48 [0 ffffffff 2 800] ------- [19:255 -1:255 27 0] [0x2 4 1 [0 0] [4 4]] (REQUEST)
s 0.016000000 _5_ AGT  --- 10 cbr 1000 [0 0 0 0] ------- [5:0 5:1 32 0] [2] 0 0
r 0.016000000 _5_ AGT  --- 10 cbr 1000 [0 0 0 0] ------- [5:0 5:1 32 0] [2] 0 0
s 0.016000000 _6_ AGT  --- 11 cbr 1000 [0 0 0 0] ------- [6:0 6:1 32 0] [2] 0 0
r 0.016000000 _6_ AGT  --- 11 cbr 1000 [0 0 0 0] ------- [6:0 6:1 32 0] [2] 0 0
s 0.016000000 _4_ AGT  --- 12 cbr 1000 [0 0 0 0] ------- [4:0 0:0 32 0] [2] 0 0
r 0.016000000 _4_ RTR  --- 12 cbr 1000 [0 0 0 0] ------- [4:0 0:0 32 0] [2] 0 0
s 0.016000000 _17_ AGT  --- 13 cbr 1000 [0 0 0 0] ------- [17:0 1:0 32 0] [2] 0 0
r 0.016000000 _17_ RTR  --- 13 cbr 1000 [0 0 0 0] ------- [17:0 1:0 32 0] [2] 0 0
s 0.016000000 _8_ AGT  --- 14 cbr 1000 [0 0 0 0] ------- [8:0 6:2 32 0] [2] 0 0
r 0.016000000 _8_ RTR  --- 14 cbr 1000 [0 0 0 0] ------- [8:0 6:2 32 0] [2] 0 0
s 0.016093125 _13_ MAC  --- 0 AODV 106 [0 ffffffff d 800] ------- [13:255 -1:255 27 0] [0x2 4 1 [1 0] [17 4]] (REQUEST)
r 0.016445076 _16_ MAC  --- 0 AODV 44 [13a 10 1 800] ------- [1:255 17:255 30 16] [0x4 1 [1 4] 10.000000] (REPLY)
s 0.016455076 _16_ MAC  --- 0 ACK 38 [0 1 0 0] 
r 0.016470076 _16_ RTR  --- 0 AODV 44 [13a 10 1 800] ------- [1:255 17:255 30 16] [0x4 1 [1 4] 10.000000] (REPLY)
f 0.016470076 _16_ RTR  --- 0 AODV 44 [13a 10 1 800] ------- [1:255 17:255 29 17] [0x4 2 [1 4] 10.000000] (REPLY)
r 0.016759833 _1_ MAC  --- 0 ACK 38 [0 1 0 0] 
r 0.016941514 _11_ MAC  --- 0 AODV 48 [0 ffffffff d 800] ------- [13:255 -1:255 27 0] [0x2 4 1 [1 0] [17 4]] (REQUEST)
r 0.016941677 _15_ MAC  --- 0 AODV 48 [0 ffffffff d 800] ------- [13:255 -1:255 27 0] [0x2 4 1 [1 0] [17 4]] (REQUEST)
r 0.016941820 _14_ MAC  --- 0 AODV 48 [0 ffffffff d 800] ------- [13:255 -1:255 27 0] [0x2 4 1 [1 0] [17 4]] (REQUEST)
r 0.016941884 _12_ MAC  --- 0 AODV 48 [0 ffffffff d 800] ------- [13:255 -1:255 27 0] [0x2 4 1 [1 0] [17 4]] (REQUEST)
r 0.016966514 _11_ RTR  --- 0 AODV 48 [0 ffffffff d 800] ------- [13:255 -1:255 27 0] [0x2 4 1 [1 0] [17 4]] (REQUEST)
r 0.016966677 _15_ RTR  --- 0 AODV 48 [0 ffffffff d 800] ------- [13:255 -1:255 27 0] [0x2 4 1 [1 0] [17 4]] (REQUEST)
r 0.016966820 _14_ RTR  --- 0 AODV 48 [0 ffffffff d 800] ------- [13:255 -1:255 27 0] [0x2 4 1 [1 0] [17 4]] (REQUEST)
r 0.016966884 _12_ RTR  --- 0 AODV 48 [0 ffffffff d 800] ------- [13:255 -1:255 27 0] [0x2 4 1 [1 0] [17 4]] (REQUEST)
s 0.017231969 _12_ RTR  --- 0 AODV 48 [0 ffffffff 2 800] ------- [12:255 -1:255 27 0] [0x2 4 1 [0 0] [4 4]] (REQUEST)
s 0.017454383 _3_ RTR  --- 0 AODV 48 [0 ffffffff 2 800] ------- [3:255 -1:255 27 0] [0x2 4 1 [0 0] [4 4]] (REQUEST)
s 0.017476042 _19_ MAC  --- 0 AODV 106 [0 ffffffff 13 800] ------- [19:255 -1:255 27 0] [0x2 4 1 [0 0] [4 4]] (REQUEST)
s 0.017591072 _3_ RTR  --- 0 AODV 48 [0 ffffffff 10 800] ------- [3:255 -1:255 28 0] [0x2 3 1 [1 0] [17 4]] (REQUEST)
s 0.018197712 _15_ RTR  --- 0 AODV 48 [0 ffffffff d 800] ------- [15:255 -1:255 26 0] [0x2 5 1 [1 0] [17 4]] (REQUEST)
r 0.018324406 _18_ MAC  --- 0 AODV 48 [0 ffffffff 13 800] ------- [19:255 -1:255 27 0] [0x2 4 1 [0 0] [4 4]] (REQUEST)
r 0.018324693 _2_ MAC  --- 0 AODV 48 [0 ffffffff 13 800] ------- [19:255 -1:255 27 0] [0x2 4 1 [0 0] [4 4]] (REQUEST)
r 0.018324715 _16_ MAC  --- 0 AODV 48 [0 ffffffff 13 800] ------- [19:255 -1:255 27 0] [0x2 4 1 [0 0] [4 4]] (REQUEST)
r 0.018324765 _11_ MAC  --- 0 AODV 48 [0 ffffffff 13 800] ------- [19:255 -1:255 27 0] [0x2 4 1 [0 0] [4 4]] (REQUEST)
r 0.018324778 _17_ MAC  --- 0 AODV 48 [0 ffffffff 13 800] ------- [19:255 -1:255 27 0] [0x2 4 1 [0 0] [4 4]] (REQUEST)
r 0.018349406 _18_ RTR  --- 0 AODV 48 [0 ffffffff 13 800] ------- [19:255 -1:255 27 0] [0x2 4 1 [0 0] [4 4]] (REQUEST)
r 0.018349693 _2_ RTR  --- 0 AODV 48 [0 ffffffff 13 800] ------- [19:255 -1:255 27 0] [0x2 4 1 [0 0] [4 4]] (REQUEST)
r 0.018349715 _16_ RTR  --- 0 AODV 48 [0 ffffffff 13 800] ------- [19:255 -1:255 27 0] [0x2 4 1 [0 0] [4 4]] (REQUEST)
r 0.018349765 _11_ RTR  --- 0 AODV 48 [0 ffffffff 13 800] ------- [19:255 -1:255 27 0] [0x2 4 1 [0 0] [4 4]] (REQUEST)
r 0.018349778 _17_ RTR  --- 0 AODV 48 [0 ffffffff 13 800] ------- [19:255 -1:255 27 0] [0x2 4 1 [0 0] [4 4]] (REQUEST)
s 0.018634715 _16_ MAC  --- 0 AODV 106 [0 ffffffff 10 800] ------- [16:255 -1:255 27 0] [0x2 4 1 [0 0] [4 4]] (REQUEST)
r 0.019483217 _3_ MAC  --- 0 AODV 48 [0 ffffffff 10 800] ------- [16:255 -1:255 27 0] [0x2 4 1 [0 0] [4 4]] (REQUEST)
r 0.019483388 _19_ MAC  --- 0 AODV 48 [0 ffffffff 10 800] ------- [16:255 -1:255 27 0] [0x2 4 1 [0 0] [4 4]] (REQUEST)
r 0.019483411 _17_ MAC  --- 0 AODV 48 [0 ffffffff 10 800] ------- [16:255 -1:255 27 0] [0x2 4 1 [0 0] [4 4]] (REQUEST)
r 0.019483470 _2_ MAC  --- 0 AODV 48 [0 ffffffff 10 800] ------- [16:255 -1:255 27 0] [0x2 4 1 [0 0] [4 4]] (REQUEST)
r 0.019483471 _1_ MAC  --- 0 AODV 48 [0 ffffffff 10 800] ------- [16:255 -1:255 27 0] [0x2 4 1 [0 0] [4 4]] (REQUEST)
r 0.019508217 _3_ RTR  --- 0 AODV 48 [0 ffffffff 10 800] ------- [16:255 -1:255 27 0] [0x2 4 1 [0 0] [4 4]] (REQUEST)
r 0.019508388 _19_ RTR  --- 0 AODV 48 [0 ffffffff 10 800] ------- [16:255 -1:255 27 0] [0x2 4 1 [0 0] [4 4]] (REQUEST)
r 0.019508411 _17_ RTR  --- 0 AODV 48 [0 ffffffff 10 800] ------- [16:255 -1:255 27 0] [0x2 4 1 [0 0] [4 4]] (REQUEST)
r 0.019508470 _2_ RTR  --- 0 AODV 48 [0 ffffffff 10 800] ------- [16:255 -1:255 27 0] [0x2 4 1 [0 0] [4 4]] (REQUEST)
r 0.019508471 _1_ RTR  --- 0 AODV 48 [0 ffffffff 10 800] ------- [16:255 -1:255 27 0] [0x2 4 1 [0 0] [4 4]] (REQUEST)
s 0.019612715 _16_ MAC  --- 0 ARP 86 [0 ffffffff 10 806] ------- [REQUEST 16/16 0/17]
r 0.020301217 _3_ MAC  --- 0 ARP 28 [0 ffffffff 10 806] ------- [REQUEST 16/16 0/17]
r 0.020301388 _19_ MAC  --- 0 ARP 28 [0 ffffffff 10 806] ------- [REQUEST 16/16 0/17]
r 0.020301411 _17_ MAC  --- 0 ARP 28 [0 ffffffff 10 806] ------- [REQUEST 16/16 0/17]
r 0.020301470 _2_ MAC  --- 0 ARP 28 [0 ffffffff 10 806] ------- [REQUEST 16/16 0/17]
r 0.020301471 _1_ MAC  --- 0 ARP 28 [0 ffffffff 10 806] ------- [REQUEST 16/16 0/17]
s 0.020596411 _17_ MAC  --- 0 RTS 44 [52e 10 11 0] 
s 0.020716520 _15_ MAC  --- 0 AODV 106 [0 ffffffff f 800] ------- [15:255 -1:255 26 0] [0x2 5 1 [1 0] [17 4]] (REQUEST)
r 0.020949108 _16_ MAC  --- 0 RTS 44 [52e 10 11 0] 
s 0.020967647 _18_ RTR  --- 0 AODV 48 [0 ffffffff 13 800] ------- [18:255 -1:255 26 0] [0x2 5 1 [0 0] [4 4]] (REQUEST)
s 0.021396411 _17_ MAC  --- 0 RTS 44 [52e 10 11 0] 
r 0.021565006 _14_ MAC  --- 0 AODV 48 [0 ffffffff f 800] ------- [15:255 -1:255 26 0] [0x2 5 1 [1 0] [17 4]] (REQUEST)
r 0.021565015 _10_ MAC  --- 0 AODV 48 [0 ffffffff f 800] ------- [15:255 -1:255 26 0] [0x2 5 1 [1 0] [17 4]] (REQUEST)
D 0.021565028 _12_ MAC  COL 0 AODV 106 [0 ffffffff f 800] ------- [15:255 -1:255 26 0] [0x2 5 1 [1 0] [17 4]] (REQUEST)
D 0.021565072 _13_ MAC  COL 0 AODV 106 [0 ffffffff f 800] ------- [15:255 -1:255 26 0] [0x2 5 1 [1 0] [17 4]] (REQUEST)
r 0.021590006 _14_ RTR  --- 0 AODV 48 [0 ffffffff f 800] ------- [15:255 -1:255 26 0] [0x2 5 1 [1 0] [17 4]] (REQUEST)
r 0.021590015 _10_ RTR  --- 0 AODV 48 [0 ffffffff f 800] ------- [15:255 -1:255 26 0] [0x2 5 1 [1 0] [17 4]] (REQUEST)
r 0.021749108 _16_ MAC  --- 0 RTS 44 [52e 10 11 0] 
s 0.021789925 _12_ RTR  --- 0 AODV 48 [0 ffffffff 2 800] ------- [12:255 -1:255 27 0] [0x2 4 1 [1 0] [17 4]] (REQUEST)
s 0.022284173 _12_ MAC  --- 0 AODV 106 [0 ffffffff c 800] ------- [12:255 -1:255 27 0] [0x2 4 1 [0 0] [4 4]] (REQUEST)
s 0.022378196 _9_ RTR  --- 0 AODV 48 [0 ffffffff 2 800] ------- [9:255 -1:255 27 0] [0x2 4 1 [1 0] [17 4]] (REQUEST)
s 0.022606651 _17_ RTR  --- 0 AODV 48 [0 ffffffff 13 800] ------- [17:255 -1:255 26 0] [0x2 5 1 [0 0] [4 4]] (REQUEST)
s 0.022781641 _1_ RTR  --- 0 AODV 48 [0 ffffffff 10 800] ------- [1:255 -1:255 26 0] [0x2 5 1 [0 0] [4 4]] (REQUEST)
r 0.023132680 _15_ MAC  --- 0 AODV 48 [0 ffffffff c 800] ------- [12:255 -1:255 27 0] [0x2 4 1 [0 0] [4 4]] (REQUEST)
r 0.023132874 _10_ MAC  --- 0 AODV 48 [0 ffffffff c 800] ------- [12:255 -1:255 27 0] [0x2 4 1 [0 0] [4 4]] (REQUEST)
r 0.023132877 _2_ MAC  --- 0 AODV 48 [0 ffffffff c 800] ------- [12:255 -1:255 27 0] [0x2 4 1 [0 0] [4 4]] (REQUEST)
r 0.023132932 _13_ MAC  --- 0 AODV 48 [0 ffffffff c 800] ------- [12:255 -1:255 27 0] [0x2 4 1 [0 0] [4 4]] (REQUEST)
s 0.023156641 _1_ MAC  --- 0 AODV 106 [0 ffffffff 1 800] ------- [1:255 -1:255 26 0] [0x2 5 1 [0 0] [4 4]] (REQUEST)
r 0.023157680 _15_ RTR  --- 0 AODV 48 [0 ffffffff c 800] ------- [12:255 -1:255 27 0] [0x2 4 1 [0 0] [4 4]] (REQUEST)
r 0.023157874 _10_ RTR  --- 0 AODV 48 [0 ffffffff c 800] ------- [12:255 -1:255 27 0] [0x2 4 1 [0 0] [4 4]] (REQUEST)
r 0.023157877 _2_ RTR  --- 0 AODV 48 [0 ffffffff c 800] ------- [12:255 -1:255 27 0] [0x2 4 1 [0 0] [4 4]] (REQUEST)
r 0.023157932 _13_ RTR  --- 0 AODV 48 [0 ffffffff c 800] ------- [12:255 -1:255 27 0] [0x2 4 1 [0 0] [4 4]] (REQUEST)
s 0.023222173 _12_ MAC  --- 0 AODV 106 [0 ffffffff c 800] ------- [12:255 -1:255 27 0] [0x2 4 1 [1 0] [17 4]] (REQUEST)
s 0.023653058 _14_ RTR  --- 0 AODV 48 [0 ffffffff d 800] ------- [14:255 -1:255 26 0] [0x2 5 1 [1 0] [17 4]] (REQUEST)
s 0.023659014 _15_ RTR  --- 0 AODV 48 [0 ffffffff c 800] ------- [15:255 -1:255 26 0] [0x2 5 1 [0 0] [4 4]] (REQUEST)
s 0.023898162 _11_ RTR  --- 0 AODV 48 [0 ffffffff 13 800] ------- [11:255 -1:255 26 0] [0x2 5 1 [0 0] [4 4]] (REQUEST)
s 0.024000000 _5_ AGT  --- 15 cbr 1000 [0 0 0 0] ------- [5:0 5:1 32 0] [3] 0 0
r 0.024000000 _5_ AGT  --- 15 cbr 1000 [0 0 0 0] ------- [5:0 5:1 32 0] [3] 0 0
s 0.024000000 _6_ AGT  --- 16 cbr 1000 [0 0 0 0] ------- [6:0 6:1 32 0] [3] 0 0
r 0.024000000 _6_ AGT  --- 16 cbr 1000 [0 0 0 0] ------- [6:0 6:1 32 0] [3] 0 0
s 0.024000000 _4_ AGT  --- 17 cbr 1000 [0 0 0 0] ------- [4:0 0:0 32 0] [3] 0 0
r 0.024000000 _4_ RTR  --- 17 cbr 1000 [0 0 0 0] ------- [4:0 0:0 32 0] [3] 0 0
s 0.024000000 _17_ AGT  --- 18 cbr 1000 [0 0 0 0] ------- [17:0 1:0 32 0] [3] 0 0
r 0.024000000 _17_ RTR  --- 18 cbr 1000 [0 0 0 0] ------- [17:0 1:0 32 0] [3] 0 0
s 0.024000000 _8_ AGT  --- 19 cbr 1000 [0 0 0 0] ------- [8:0 6:2 32 0] [3] 0 0
r 0.024000000 _8_ RTR  --- 19 cbr 1000 [0 0 0 0] ------- [8:0 6:2 32 0] [3] 0 0
r 0.024005364 _7_ MAC  --- 0 AODV 48 [0 ffffffff 1 800] ------- [1:255 -1:255 26 0] [0x2 5 1 [0 0] [4 4]] (REQUEST)
r 0.024005366 _3_ MAC  --- 0 AODV 48 [0 ffffffff 1 800] ------- [1:255 -1:255 26 0] [0x2 5 1 [0 0] [4 4]] (REQUEST)
r 0.024005397 _16_ MAC  --- 0 AODV 48 [0 ffffffff 1 800] ------- [1:255 -1:255 26 0] [0x2 5 1 [0 0] [4 4]] (REQUEST)
r 0.024030364 _7_ RTR  --- 0 AODV 48 [0 ffffffff 1 800] ------- [1:255 -1:255 26 0] [0x2 5 1 [0 0] [4 4]] (REQUEST)
r 0.024030366 _3_ RTR  --- 0 AODV 48 [0 ffffffff 1 800] ------- [1:255 -1:255 26 0] [0x2 5 1 [0 0] [4 4]] (REQUEST)
r 0.024030397 _16_ RTR  --- 0 AODV 48 [0 ffffffff 1 800] ------- [1:255 -1:255 26 0] [0x2 5 1 [0 0] [4 4]] (REQUEST)
r 0.024070680 _15_ MAC  --- 0 AODV 48 [0 ffffffff c 800] ------- [12:255 -1:255 27 0] [0x2 4 1 [1 0] [17 4]] (REQUEST)
r 0.024070874 _10_ MAC  --- 0 AODV 48 [0 ffffffff c 800] ------- [12:255 -1:255 27 0] [0x2 4 1 [1 0] [17 4]] (REQUEST)
D 0.024070877 _2_ MAC  COL 0 AODV 106 [0 ffffffff c 800] ------- [12:255 -1:255 27 0] [0x2 4 1 [1 0] [17 4]] (REQUEST)
r 0.024070932 _13_ MAC  --- 0 AODV 48 [0 ffffffff c 800] ------- [12:255 -1:255 27 0] [0x2 4 1 [1 0] [17 4]] (REQUEST)
r 0.024095680 _15_ RTR  --- 0 AODV 48 [0 ffffffff c 800] ------- [12:255 -1:255 27 0] [0x2 4 1 [1 0] [17 4]] (REQUEST)
r 0.024095874 _10_ RTR  --- 0 AODV 48 [0 ffffffff c 800] ------- [12:255 -1:255 27 0] [0x2 4 1 [1 0] [17 4]] (REQUEST)
r 0.024095932 _13_ RTR  --- 0 AODV 48 [0 ffffffff c 800] ------- [12:255 -1:255 27 0] [0x2 4 1 [1 0] [17 4]] (REQUEST)
s 0.024200680 _15_ MAC  --- 0 AODV 106 [0 ffffffff f 800] ------- [15:255 -1:255 26 0] [0x2 5 1 [0 0] [4 4]] (REQUEST)
s 0.024505562 _3_ MAC  --- 0 AODV 106 [0 ffffffff 3 800] ------- [3:255 -1:255 27 0] [0x2 4 1 [0 0] [4 4]] (REQUEST)
r 0.025049166 _14_ MAC  --- 0 AODV 48 [0 ffffffff f 800] ------- [15:255 -1:255 26 0] [0x2 5 1 [0 0] [4 4]] (REQUEST)
r 0.025049175 _10_ MAC  --- 0 AODV 48 [0 ffffffff f 800] ------- [15:255 -1:255 26 0] [0x2 5 1 [0 0] [4 4]] (REQUEST)
r 0.025049188 _12_ MAC  --- 0 AODV 48 [0 ffffffff f 800] ------- [15:255 -1:255 26 0] [0x2 5 1 [0 0] [4 4]] (REQUEST)
r 0.025049232 _13_ MAC  --- 0 AODV 48 [0 ffffffff f 800] ------- [15:255 -1:255 26 0] [0x2 5 1 [0 0] [4 4]] (REQUEST)
r 0.025074166 _14_ RTR  --- 0 AODV 48 [0 ffffffff f 800] ------- [15:255 -1:255 26 0] [0x2 5 1 [0 0] [4 4]] (REQUEST)
r 0.025074175 _10_ RTR  --- 0 AODV 48 [0 ffffffff f 800] ------- [15:255 -1:255 26 0] [0x2 5 1 [0 0] [4 4]] (REQUEST)
r 0.025074188 _12_ RTR  --- 0 AODV 48 [0 ffffffff f 800] ------- [15:255 -1:255 26 0] [0x2 5 1 [0 0] [4 4]] (REQUEST)
r 0.025074232 _13_ RTR  --- 0 AODV 48 [0 ffffffff f 800] ------- [15:255 -1:255 26 0] [0x2 5 1 [0 0] [4 4]] (REQUEST)
s 0.025199166 _14_ MAC  --- 0 AODV 106 [0 ffffffff e 800] ------- [14:255 -1:255 26 0] [0x2 5 1 [1 0] [17 4]] (REQUEST)
D 0.025354064 _16_ MAC  COL 0 AODV 106 [0 ffffffff 3 800] ------- [3:255 -1:255 27 0] [0x2 4 1 [0 0] [4 4]] (REQUEST)
D 0.025354260 _2_ MAC  COL 0 AODV 106 [0 ffffffff 3 800] ------- [3:255 -1:255 27 0] [0x2 4 1 [0 0] [4 4]] (REQUEST)
r 0.025354286 _1_ MAC  --- 0 AODV 48 [0 ffffffff 3 800] ------- [3:255 -1:255 27 0] [0x2 4 1 [0 0] [4 4]] (REQUEST)
r 0.025354350 _0_ MAC  --- 0 AODV 48 [0 ffffffff 3 800] ------- [3:255 -1:255 27 0] [0x2 4 1 [0 0] [4 4]] (REQUEST)
r 0.025379286 _1_ RTR  --- 0 AODV 48 [0 ffffffff 3 800] ------- [3:255 -1:255 27 0] [0x2 4 1 [0 0] [4 4]] (REQUEST)
r 0.025379350 _0_ RTR  --- 0 AODV 48 [0 ffffffff 3 800] ------- [3:255 -1:255 27 0] [0x2 4 1 [0 0] [4 4]] (REQUEST)
s 0.025463562 _3_ MAC  --- 0 AODV 106 [0 ffffffff 3 800] ------- [3:255 -1:255 28 0] [0x2 3 1 [1 0] [17 4]] (REQUEST)
r 0.026047652 _15_ MAC  --- 0 AODV 48 [0 ffffffff e 800] ------- [14:255 -1:255 26 0] [0x2 5 1 [1 0] [17 4]] (REQUEST)
r 0.026047861 _13_ MAC  --- 0 AODV 48 [0 ffffffff e 800] ------- [14:255 -1:255 26 0] [0x2 5 1 [1 0] [17 4]] (REQUEST)
r 0.026047895 _10_ MAC  --- 0 AODV 48 [0 ffffffff e 800] ------- [14:255 -1:255 26 0] [0x2 5 1 [1 0] [17 4]] (REQUEST)
r 0.026072652 _15_ RTR  --- 0 AODV 48 [0 ffffffff e 800] ------- [14:255 -1:255 26 0] [0x2 5 1 [1 0] [17 4]] (REQUEST)
r 0.026072861 _13_ RTR  --- 0 AODV 48 [0 ffffffff e 800] ------- [14:255 -1:255 26 0] [0x2 5 1 [1 0] [17 4]] (REQUEST)
r 0.026072895 _10_ RTR  --- 0 AODV 48 [0 ffffffff e 800] ------- [14:255 -1:255 26 0] [0x2 5 1 [1 0] [17 4]] (REQUEST)
r 0.026312064 _16_ MAC  --- 0 AODV 48 [0 ffffffff 3 800] ------- [3:255 -1:255 28 0] [0x2 3 1 [1 0] [17 4]] (REQUEST)
r 0.026312260 _2_ MAC  --- 0 AODV 48 [0 ffffffff 3 800] ------- [3:255 -1:255 28 0] [0x2 3 1 [1 0] [17 4]] (REQUEST)
r 0.026312286 _1_ MAC  --- 0 AODV 48 [0 ffffffff 3 800] ------- [3:255 -1:255 28 0] [0x2 3 1 [1 0] [17 4]] (REQUEST)
r 0.026312350 _0_ MAC  --- 0 AODV 48 [0 ffffffff 3 800] ------- [3:255 -1:255 28 0] [0x2 3 1 [1 0] [17 4]] (REQUEST)
r 0.026337064 _16_ RTR  --- 0 AODV 48 [0 ffffffff 3 800] ------- [3:255 -1:255 28 0] [0x2 3 1 [1 0] [17 4]] (REQUEST)
r 0.026337260 _2_ RTR  --- 0 AODV 48 [0 ffffffff 3 800] ------- [3:255 -1:255 28 0] [0x2 3 1 [1 0] [17 4]] (REQUEST)
r 0.026337286 _1_ RTR  --- 0 AODV 48 [0 ffffffff 3 800] ------- [3:255 -1:255 28 0] [0x2 3 1 [1 0] [17 4]] (REQUEST)
r 0.026337350 _0_ RTR  --- 0 AODV 48 [0 ffffffff 3 800] ------- [3:255 -1:255 28 0] [0x2 3 1 [1 0] [17 4]] (REQUEST)
s 0.026846475 _9_ MAC  --- 0 AODV 106 [0 ffffffff 9 800] ------- [9:255 -1:255 27 0] [0x2 4 1 [1 0] [17 4]] (REQUEST)
s 0.026987255 _11_ MAC  --- 0 AODV 106 [0 ffffffff b 800] ------- [11:255 -1:255 26 0] [0x2 5 1 [0 0] [4 4]] (REQUEST)
D 0.026988394 _2_ MAC  COL 0 AODV 106 [0 ffffffff 9 800] ------- [9:255 -1:255 27 0] [0x2 4 1 [1 0] [17 4]] (REQUEST)