s 0.000000000 _5_ AGT  --- 0 cbr 1000 [0 0 0 0] ------- [5:0 5:1 32 0] [0] 0 0
r 0.000000000 _5_ AGT  --- 0 cbr 1000 [0 0 0 0] ------- [5:0 5:1 32 0] [0] 0 0
s 0.000000000 _6_ AGT  --- 1 cbr 1000 [0 0 0 0] ------- [6:0 6:1 32 0] [0] 0 0
r 0.000000000 _6_ AGT  --- 1 cbr 1000 [0 0 0 0] ------- [6:0 6:1 32 0] [0] 0 0
s 0.000000000 _4_ AGT  --- 2 cbr 1000 [0 0 0 0] ------- [4:0 0:0 32 0] [0] 0 0
r 0.000000000 _4_ RTR  --- 2 cbr 1000 [0 0 0 0] ------- [4:0 0:0 32 0] [0] 0 0
s 0.000000000 _17_ AGT  --- 3 cbr 1000 [0 0 0 0] ------- [17:0 1:0 32 0] [0] 0 0
r 0.000000000 _17_ RTR  --- 3 cbr 1000 [0 0 0 0] ------- [17:0 1:0 32 0] [0] 0 0
s 0.000000000 _8_ AGT  --- 4 cbr 1000 [0 0 0 0] ------- [8:0 6:2 32 0] [0] 0 0
r 0.000000000 _8_ RTR  --- 4 cbr 1000 [0 0 0 0] ------- [8:0 6:2 32 0] [0] 0 0
s 0.000000000 _10_ AGT  --- 5 cbr 1000 [0 0 0 0] ------- [10:0 7:0 32 0] [0] 0 0
r 0.000000000 _10_ RTR  --- 5 cbr 1000 [0 0 0 0] ------- [10:0 7:0 32 0] [0] 0 0
s 0.000000000 _4_ RTR  --- 0 AODV 48 [0 0 0 0] ------- [4:255 -1:255 30 0] [0x2 1 1 [0 0] [4 4]] (REQUEST)
s 0.000000000 _17_ RTR  --- 0 AODV 48 [0 0 0 0] ------- [17:255 -1:255 30 0] [0x2 1 1 [1 0] [17 4]] (REQUEST)
s 0.000000000 _8_ RTR  --- 0 AODV 48 [0 0 0 0] ------- [8:255 -1:255 30 0] [0x2 1 1 [6 0] [8 4]] (REQUEST)
s 0.000000000 _10_ RTR  --- 0 AODV 48 [0 0 0 0] ------- [10:255 -1:255 30 0] [0x2 1 1 [7 0] [10 4]] (REQUEST)
s 0.000115000 _17_ MAC  --- 0 AODV 106 [0 ffffffff 11 800] ------- [17:255 -1:255 30 0] [0x2 1 1 [1 0] [17 4]] (REQUEST)
s 0.000375000 _10_ MAC  --- 0 AODV 106 [0 ffffffff a 800] ------- [10:255 -1:255 30 0] [0x2 1 1 [7 0] [10 4]] (REQUEST)
s 0.000635000 _8_ MAC  --- 0 AODV 106 [0 ffffffff 8 800] ------- [8:255 -1:255 30 0] [0x2 1 1 [6 0] [8 4]] (REQUEST)
r 0.000963678 _18_ MAC  --- 0 AODV 48 [0 ffffffff 11 800] ------- [17:255 -1:255 30 0] [0x2 1 1 [1 0] [17 4]] (REQUEST)
r 0.000963696 _16_ MAC  --- 0 AODV 48 [0 ffffffff 11 800] ------- [17:255 -1:255 30 0] [0x2 1 1 [1 0] [17 4]] (REQUEST)
r 0.000963736 _19_ MAC  --- 0 AODV 48 [0 ffffffff 11 800] ------- [17:255 -1:255 30 0] [0x2 1 1 [1 0] [17 4]] (REQUEST)
r 0.000988678 _18_ RTR  --- 0 AODV 48 [0 ffffffff 11 800] ------- [17:255 -1:255 30 0] [0x2 1 1 [1 0] [17 4]] (REQUEST)
r 0.000988696 _16_ RTR  --- 0 AODV 48 [0 ffffffff 11 800] ------- [17:255 -1:255 30 0] [0x2 1 1 [1 0] [17 4]] (REQUEST)
r 0.000988736 _19_ RTR  --- 0 AODV 48 [0 ffffffff 11 800] ------- [17:255 -1:255 30 0] [0x2 1 1 [1 0] [17 4]] (REQUEST)
r 0.001223495 _15_ MAC  --- 0 AODV 48 [0 ffffffff a 800] ------- [10:255 -1:255 30 0] [0x2 1 1 [7 0] [10 4]] (REQUEST)
D 0.001223701 _12_ MAC  COL 0 AODV 106 [0 ffffffff a 800] ------- [10:255 -1:255 30 0] [0x2 1 1 [7 0] [10 4]] (REQUEST)
r 0.001223729 _14_ MAC  --- 0 AODV 48 [0 ffffffff a 800] ------- [10:255 -1:255 30 0] [0x2 1 1 [7 0] [10 4]] (REQUEST)
r 0.001248495 _15_ RTR  --- 0 AODV 48 [0 ffffffff a 800] ------- [10:255 -1:255 30 0] [0x2 1 1 [7 0] [10 4]] (REQUEST)
r 0.001248729 _14_ RTR  --- 0 AODV 48 [0 ffffffff a 800] ------- [10:255 -1:255 30 0] [0x2 1 1 [7 0] [10 4]] (REQUEST)
r 0.001483479 _5_ MAC  --- 0 AODV 48 [0 ffffffff 8 800] ------- [8:255 -1:255 30 0] [0x2 1 1 [6 0] [8 4]] (REQUEST)
D 0.001483696 _7_ MAC  COL 0 AODV 106 [0 ffffffff 8 800] ------- [8:255 -1:255 30 0] [0x2 1 1 [6 0] [8 4]] (REQUEST)
r 0.001508479 _5_ RTR  --- 0 AODV 48 [0 ffffffff 8 800] ------- [8:255 -1:255 30 0] [0x2 1 1 [6 0] [8 4]] (REQUEST)
s 0.001798376 _4_ MAC  --- 0 AODV 106 [0 ffffffff 4 800] ------- [4:255 -1:255 30 0] [0x2 1 1 [0 0] [4 4]] (REQUEST)
r 0.002646980 _9_ MAC  --- 0 AODV 48 [0 ffffffff 4 800] ------- [4:255 -1:255 30 0] [0x2 1 1 [0 0] [4 4]] (REQUEST)
r 0.002671980 _9_ RTR  --- 0 AODV 48 [0 ffffffff 4 800] ------- [4:255 -1:255 30 0] [0x2 1 1 [0 0] [4 4]] (REQUEST)
s 0.003149933 _5_ RTR  --- 0 AODV 48 [0 ffffffff 8 800] ------- [5:255 -1:255 29 0] [0x2 2 1 [6 0] [8 4]] (REQUEST)
s 0.003584933 _5_ MAC  --- 0 AODV 106 [0 ffffffff 5 800] ------- [5:255 -1:255 29 0] [0x2 2 1 [6 0] [8 4]] (REQUEST)
s 0.004118314 _16_ RTR  --- 0 AODV 48 [0 ffffffff 11 800] ------- [16:255 -1:255 29 0] [0x2 2 1 [1 0] [17 4]] (REQUEST)
s 0.004339519 _14_ RTR  --- 0 AODV 48 [0 ffffffff a 800] ------- [14:255 -1:255 29 0] [0x2 2 1 [7 0] [10 4]] (REQUEST)
s 0.004433314 _16_ MAC  --- 0 AODV 106 [0 ffffffff 10 800] ------- [16:255 -1:255 29 0] [0x2 2 1 [1 0] [17 4]] (REQUEST)
r 0.004433411 _8_ MAC  --- 0 AODV 48 [0 ffffffff 5 800] ------- [5:255 -1:255 29 0] [0x2 2 1 [6 0] [8 4]] (REQUEST)
r 0.004458411 _8_ RTR  --- 0 AODV 48 [0 ffffffff 5 800] ------- [5:255 -1:255 29 0] [0x2 2 1 [6 0] [8 4]] (REQUEST)
s 0.004574519 _14_ MAC  --- 0 AODV 106 [0 ffffffff e 800] ------- [14:255 -1:255 29 0] [0x2 2 1 [7 0] [10 4]] (REQUEST)
D 0.005281816 _3_ MAC  COL 0 AODV 106 [0 ffffffff 10 800] ------- [16:255 -1:255 29 0] [0x2 2 1 [1 0] [17 4]] (REQUEST)
r 0.005281987 _19_ MAC  --- 0 AODV 48 [0 ffffffff 10 800] ------- [16:255 -1:255 29 0] [0x2 2 1 [1 0] [17 4]] (REQUEST)
r 0.005282010 _17_ MAC  --- 0 AODV 48 [0 ffffffff 10 800] ------- [16:255 -1:255 29 0] [0x2 2 1 [1 0] [17 4]] (REQUEST)
r 0.005282069 _2_ MAC  --- 0 AODV 48 [0 ffffffff 10 800] ------- [16:255 -1:255 29 0] [0x2 2 1 [1 0] [17 4]] (REQUEST)
D 0.005282070 _1_ MAC  COL 0 AODV 106 [0 ffffffff 10 800] ------- [16:255 -1:255 29 0] [0x2 2 1 [1 0] [17 4]] (REQUEST)
r 0.005306987 _19_ RTR  --- 0 AODV 48 [0 ffffffff 10 800] ------- [16:255 -1:255 29 0] [0x2 2 1 [1 0] [17 4]] (REQUEST)
r 0.005307010 _17_ RTR  --- 0 AODV 48 [0 ffffffff 10 800] ------- [16:255 -1:255 29 0] [0x2 2 1 [1 0] [17 4]] (REQUEST)
r 0.005307069 _2_ RTR  --- 0 AODV 48 [0 ffffffff 10 800] ------- [16:255 -1:255 29 0] [0x2 2 1 [1 0] [17 4]] (REQUEST)
D 0.005423005 _15_ MAC  COL 0 AODV 106 [0 ffffffff e 800] ------- [14:255 -1:255 29 0] [0x2 2 1 [7 0] [10 4]] (REQUEST)
D 0.005423214 _13_ MAC  COL 0 AODV 106 [0 ffffffff e 800] ------- [14:255 -1:255 29 0] [0x2 2 1 [7 0] [10 4]] (REQUEST)
r 0.005423248 _10_ MAC  --- 0 AODV 48 [0 ffffffff e 800] ------- [14:255 -1:255 29 0] [0x2 2 1 [7 0] [10 4]] (REQUEST)
r 0.005448248 _10_ RTR  --- 0 AODV 48 [0 ffffffff e 800] ------- [14:255 -1:255 29 0] [0x2 2 1 [7 0] [10 4]] (REQUEST)
s 0.007637146 _15_ RTR  --- 0 AODV 48 [0 ffffffff a 800] ------- [15:255 -1:255 29 0] [0x2 2 1 [7 0] [10 4]] (REQUEST)
s 0.007932146 _15_ MAC  --- 0 AODV 106 [0 ffffffff f 800] ------- [15:255 -1:255 29 0] [0x2 2 1 [7 0] [10 4]] (REQUEST)
s 0.008000000 _5_ AGT  --- 6 cbr 1000 [0 0 0 0] ------- [5:0 5:1 32 0] [1] 0 0
r 0.008000000 _5_ AGT  --- 6 cbr 1000 [0 0 0 0] ------- [5:0 5:1 32 0] [1] 0 0
s 0.008000000 _6_ AGT  --- 7 cbr 1000 [0 0 0 0] ------- [6:0 6:1 32 0] [1] 0 0
r 0.008000000 _6_ AGT  --- 7 cbr 1000 [0 0 0 0] ------- [6:0 6:1 32 0] [1] 0 0
s 0.008000000 _4_ AGT  --- 8 cbr 1000 [0 0 0 0] ------- [4:0 0:0 32 0] [1] 0 0
r 0.008000000 _4_ RTR  --- 8 cbr 1000 [0 0 0 0] ------- [4:0 0:0 32 0] [1] 0 0
s 0.008000000 _17_ AGT  --- 9 cbr 1000 [0 0 0 0] ------- [17:0 1:0 32 0] [1] 0 0
r 0.008000000 _17_ RTR  --- 9 cbr 1000 [0 0 0 0] ------- [17:0 1:0 32 0] [1] 0 0
s 0.008000000 _8_ AGT  --- 10 cbr 1000 [0 0 0 0] ------- [8:0 6:2 32 0] [1] 0 0
r 0.008000000 _8_ RTR  --- 10 cbr 1000 [0 0 0 0] ------- [8:0 6:2 32 0] [1] 0 0
s 0.008000000 _10_ AGT  --- 11 cbr 1000 [0 0 0 0] ------- [10:0 7:0 32 0] [1] 0 0
r 0.008000000 _10_ RTR  --- 11 cbr 1000 [0 0 0 0] ------- [10:0 7:0 32 0] [1] 0 0
r 0.008780632 _14_ MAC  --- 0 AODV 48 [0 ffffffff f 800] ------- [15:255 -1:255 29 0] [0x2 2 1 [7 0] [10 4]] (REQUEST)
r 0.008780641 _10_ MAC  --- 0 AODV 48 [0 ffffffff f 800] ------- [15:255 -1:255 29 0] [0x2 2 1 [7 0] [10 4]] (REQUEST)
r 0.008780654 _12_ MAC  --- 0 AODV 48 [0 ffffffff f 800] ------- [15:255 -1:255 29 0] [0x2 2 1 [7 0] [10 4]] (REQUEST)
r 0.008780698 _13_ MAC  --- 0 AODV 48 [0 ffffffff f 800] ------- [15:255 -1:255 29 0] [0x2 2 1 [7 0] [10 4]] (REQUEST)
r 0.008805632 _14_ RTR  --- 0 AODV 48 [0 ffffffff f 800] ------- [15:255 -1:255 29 0] [0x2 2 1 [7 0] [10 4]] (REQUEST)
r 0.008805641 _10_ RTR  --- 0 AODV 48 [0 ffffffff f 800] ------- [15:255 -1:255 29 0] [0x2 2 1 [7 0] [10 4]] (REQUEST)
r 0.008805654 _12_ RTR  --- 0 AODV 48 [0 ffffffff f 800] ------- [15:255 -1:255 29 0] [0x2 2 1 [7 0] [10 4]] (REQUEST)
r 0.008805698 _13_ RTR  --- 0 AODV 48 [0 ffffffff f 800] ------- [15:255 -1:255 29 0] [0x2 2 1 [7 0] [10 4]] (REQUEST)
s 0.008980232 _18_ RTR  --- 0 AODV 48 [0 ffffffff 11 800] ------- [18:255 -1:255 29 0] [0x2 2 1 [1 0] [17 4]] (REQUEST)
s 0.009072656 _9_ RTR  --- 0 AODV 48 [0 ffffffff 4 800] ------- [9:255 -1:255 29 0] [0x2 2 1 [0 0] [4 4]] (REQUEST)
s 0.009153497 _19_ RTR  --- 0 AODV 48 [0 ffffffff 11 800] ------- [19:255 -1:255 29 0] [0x2 2 1 [1 0] [17 4]] (REQUEST)
s 0.009375525 _18_ MAC  --- 0 AODV 106 [0 ffffffff 12 800] ------- [18:255 -1:255 29 0] [0x2 2 1 [1 0] [17 4]] (REQUEST)
r 0.010223889 _19_ MAC  --- 0 AODV 48 [0 ffffffff 12 800] ------- [18:255 -1:255 29 0] [0x2 2 1 [1 0] [17 4]] (REQUEST)
r 0.010224110 _11_ MAC  --- 0 AODV 48 [0 ffffffff 12 800] ------- [18:255 -1:255 29 0] [0x2 2 1 [1 0] [17 4]] (REQUEST)
r 0.010224203 _17_ MAC  --- 0 AODV 48 [0 ffffffff 12 800] ------- [18:255 -1:255 29 0] [0x2 2 1 [1 0] [17 4]] (REQUEST)
r 0.010248889 _19_ RTR  --- 0 AODV 48 [0 ffffffff 12 800] ------- [18:255 -1:255 29 0] [0x2 2 1 [1 0] [17 4]] (REQUEST)
r 0.010249110 _11_ RTR  --- 0 AODV 48 [0 ffffffff 12 800] ------- [18:255 -1:255 29 0] [0x2 2 1 [1 0] [17 4]] (REQUEST)
r 0.010249203 _17_ RTR  --- 0 AODV 48 [0 ffffffff 12 800] ------- [18:255 -1:255 29 0] [0x2 2 1 [1 0] [17 4]] (REQUEST)
s 0.010533889 _19_ MAC  --- 0 AODV 106 [0 ffffffff 13 800] ------- [19:255 -1:255 29 0] [0x2 2 1 [1 0] [17 4]] (REQUEST)
r 0.011382253 _18_ MAC  --- 0 AODV 48 [0 ffffffff 13 800] ------- [19:255 -1:255 29 0] [0x2 2 1 [1 0] [17 4]] (REQUEST)
r 0.011382540 _2_ MAC  --- 0 AODV 48 [0 ffffffff 13 800] ------- [19:255 -1:255 29 0] [0x2 2 1 [1 0] [17 4]] (REQUEST)
r 0.011382562 _16_ MAC  --- 0 AODV 48 [0 ffffffff 13 800] ------- [19:255 -1:255 29 0] [0x2 2 1 [1 0] [17 4]] (REQUEST)
r 0.011382612 _11_ MAC  --- 0 AODV 48 [0 ffffffff 13 800] ------- [19:255 -1:255 29 0] [0x2 2 1 [1 0] [17 4]] (REQUEST)
r 0.011382625 _17_ MAC  --- 0 AODV 48 [0 ffffffff 13 800] ------- [19:255 -1:255 29 0] [0x2 2 1 [1 0] [17 4]] (REQUEST)
r 0.011407253 _18_ RTR  --- 0 AODV 48 [0 ffffffff 13 800] ------- [19:255 -1:255 29 0] [0x2 2 1 [1 0] [17 4]] (REQUEST)
r 0.011407540 _2_ RTR  --- 0 AODV 48 [0 ffffffff 13 800] ------- [19:255 -1:255 29 0] [0x2 2 1 [1 0] [17 4]] (REQUEST)
r 0.011407562 _16_ RTR  --- 0 AODV 48 [0 ffffffff 13 800] ------- [19:255 -1:255 29 0] [0x2 2 1 [1 0] [17 4]] (REQUEST)
r 0.011407612 _11_ RTR  --- 0 AODV 48 [0 ffffffff 13 800] ------- [19:255 -1:255 29 0] [0x2 2 1 [1 0] [17 4]] (REQUEST)
r 0.011407625 _17_ RTR  --- 0 AODV 48 [0 ffffffff 13 800] ------- [19:255 -1:255 29 0] [0x2 2 1 [1 0] [17 4]] (REQUEST)
s 0.012197300 _9_ MAC  --- 0 AODV 106 [0 ffffffff 9 800] ------- [9:255 -1:255 29 0] [0x2 2 1 [0 0] [4 4]] (REQUEST)
s 0.012661366 _11_ RTR  --- 0 AODV 48 [0 ffffffff 12 800] ------- [11:255 -1:255 28 0] [0x2 3 1 [1 0] [17 4]] (REQUEST)
s 0.013036366 _11_ MAC  --- 0 AODV 106 [0 ffffffff b 800] ------- [11:255 -1:255 28 0] [0x2 3 1 [1 0] [17 4]] (REQUEST)
D 0.013037505 _2_ MAC  COL 0 AODV 106 [0 ffffffff 9 800] ------- [9:255 -1:255 29 0] [0x2 2 1 [0 0] [4 4]] (REQUEST)
r 0.013045903 _4_ MAC  --- 0 AODV 48 [0 ffffffff 9 800] ------- [9:255 -1:255 29 0] [0x2 2 1 [0 0] [4 4]] (REQUEST)
r 0.013046130 _0_ MAC  --- 0 AODV 48 [0 ffffffff 9 800] ------- [9:255 -1:255 29 0] [0x2 2 1 [0 0] [4 4]] (REQUEST)
r 0.013070903 _4_ RTR  --- 0 AODV 48 [0 ffffffff 9 800] ------- [9:255 -1:255 29 0] [0x2 2 1 [0 0] [4 4]] (REQUEST)
r 0.013071130 _0_ RTR  --- 0 AODV 48 [0 ffffffff 9 800] ------- [9:255 -1:255 29 0] [0x2 2 1 [0 0] [4 4]] (REQUEST)
s 0.013071130 _0_ RTR  --- 0 AODV 44 [0 0 0 0] ------- [0:255 4:255 30 9] [0x4 1 [0 4] 10.000000] (REPLY)
s 0.013266130 _0_ MAC  --- 0 ARP 86 [0 ffffffff 0 806] ------- [REQUEST 0/0 0/9]
s 0.013377354 _2_ RTR  --- 0 AODV 48 [0 ffffffff 10 800] ------- [2:255 -1:255 28 0] [0x2 3 1 [1 0] [17 4]] (REQUEST)
s 0.013466857 _13_ RTR  --- 0 AODV 48 [0 ffffffff f 800] ------- [13:255 -1:255 28 0] [0x2 3 1 [7 0] [10 4]] (REQUEST)
D 0.013884755 _13_ MAC  COL 0 AODV 106 [0 ffffffff b 800] ------- [11:255 -1:255 28 0] [0x2 3 1 [1 0] [17 4]] (REQUEST)
D 0.013884951 _18_ MAC  COL 0 AODV 106 [0 ffffffff b 800] ------- [11:255 -1:255 28 0] [0x2 3 1 [1 0] [17 4]] (REQUEST)
D 0.013885089 _19_ MAC  COL 0 AODV 106 [0 ffffffff b 800] ------- [11:255 -1:255 28 0] [0x2 3 1 [1 0] [17 4]] (REQUEST)
r 0.013954918 _3_ MAC  --- 0 ARP 28 [0 ffffffff 0 806] ------- [REQUEST 0/0 0/9]
r 0.013954961 _9_ MAC  --- 0 ARP 28 [0 ffffffff 0 806] ------- [REQUEST 0/0 0/9]
s 0.013992142 _12_ RTR  --- 0 AODV 48 [0 ffffffff f 800] ------- [12:255 -1:255 28 0] [0x2 3 1 [7 0] [10 4]] (REQUEST)
s 0.014204961 _9_ MAC  --- 0 RTS 44 [52e 0 9 0] 
r 0.014557792 _0_ MAC  --- 0 RTS 44 [52e 0 9 0] 
s 0.014567792 _0_ MAC  --- 0 CTS 38 [3f4 9 0 0] 
r 0.014872622 _9_ MAC  --- 0 CTS 38 [3f4 9 0 0] 
s 0.014882622 _9_ MAC  --- 0 ARP 86 [13a 0 9 806] ------- [REPLY 9/9 0/0]
r 0.015571453 _0_ MAC  --- 0 ARP 28 [13a 0 9 806] ------- [REPLY 9/9 0/0]
s 0.015581453 _0_ MAC  --- 0 ACK 38 [0 9 0 0] 
r 0.015886284 _9_ MAC  --- 0 ACK 38 [0 9 0 0] 
s 0.016000000 _5_ AGT  --- 12 cbr 1000 [0 0 0 0] ------- [5:0 5:1 32 0] [2] 0 0
r 0.016000000 _5_ AGT  --- 12 cbr 1000 [0 0 0 0] ------- [5:0 5:1 32 0] [2] 0 0
s 0.016000000 _6_ AGT  --- 13 cbr 1000 [0 0 0 0] ------- [6:0 6:1 32 0] [2] 0 0
r 0.016000000 _6_ AGT  --- 13 cbr 1000 [0 0 0 0] ------- [6:0 6:1 32 0] [2] 0 0
s 0.016000000 _4_ AGT  --- 14 cbr 1000 [0 0 0 0] ------- [4:0 0:0 32 0] [2] 0 0
r 0.016000000 _4_ RTR  --- 14 cbr 1000 [0 0 0 0] ------- [4:0 0:0 32 0] [2] 0 0
s 0.016000000 _17_ AGT  --- 15 cbr 1000 [0 0 0 0] ------- [17:0 1:0 32 0] [2] 0 0
r 0.016000000 _17_ RTR  --- 15 cbr 1000 [0 0 0 0] ------- [17:0 1:0 32 0] [2] 0 0
s 0.016000000 _8_ AGT  --- 16 cbr 1000 [0 0 0 0] ------- [8:0 6:2 32 0] [2] 0 0
r 0.016000000 _8_ RTR  --- 16 cbr 1000 [0 0 0 0] ------- [8:0 6:2 32 0] [2] 0 0
s 0.016000000 _10_ AGT  --- 17 cbr 1000 [0 0 0 0] ------- [10:0 7:0 32 0] [2] 0 0
r 0.016000000 _10_ RTR  --- 17 cbr 1000 [0 0 0 0] ------- [10:0 7:0 32 0] [2] 0 0
s 0.016155453 _0_ MAC  --- 0 RTS 44 [5ae 9 0 0] 
s 0.016266319 _13_ MAC  --- 0 AODV 106 [0 ffffffff d 800] ------- [13:255 -1:255 28 0] [0x2 3 1 [7 0] [10 4]] (REQUEST)
r 0.016508284 _9_ MAC  --- 0 RTS 44 [5ae 9 0 0] 
s 0.017075453 _0_ MAC  --- 0 RTS 44 [5ae 9 0 0] 
r 0.017114708 _11_ MAC  --- 0 AODV 48 [0 ffffffff d 800] ------- [13:255 -1:255 28 0] [0x2 3 1 [7 0] [10 4]] (REQUEST)
r 0.017114871 _15_ MAC  --- 0 AODV 48 [0 ffffffff d 800] ------- [13:255 -1:255 28 0] [0x2 3 1 [7 0] [10 4]] (REQUEST)
r 0.017115014 _14_ MAC  --- 0 AODV 48 [0 ffffffff d 800] ------- [13:255 -1:255 28 0] [0x2 3 1 [7 0] [10 4]] (REQUEST)
D 0.017115079 _12_ MAC  COL 0 AODV 106 [0 ffffffff d 800] ------- [13:255 -1:255 28 0] [0x2 3 1 [7 0] [10 4]] (REQUEST)
r 0.017139708 _11_ RTR  --- 0 AODV 48 [0 ffffffff d 800] ------- [13:255 -1:255 28 0] [0x2 3 1 [7 0] [10 4]] (REQUEST)
r 0.017139871 _15_ RTR  --- 0 AODV 48 [0 ffffffff d 800] ------- [13:255 -1:255 28 0] [0x2 3 1 [7 0] [10 4]] (REQUEST)
r 0.017140014 _14_ RTR  --- 0 AODV 48 [0 ffffffff d 800] ------- [13:255 -1:255 28 0] [0x2 3 1 [7 0] [10 4]] (REQUEST)
s 0.017247792 _11_ RTR  --- 0 AODV 48 [0 ffffffff d 800] ------- [11:255 -1:255 27 0] [0x2 4 1 [7 0] [10 4]] (REQUEST)
r 0.017428284 _9_ MAC  --- 0 RTS 44 [5ae 9 0 0] 
s 0.017662792 _11_ MAC  --- 0 AODV 106 [0 ffffffff b 800] ------- [11:255 -1:255 27 0] [0x2 4 1 [7 0] [10 4]] (REQUEST)
s 0.017815453 _0_ MAC  --- 0 RTS 44 [5ae 9 0 0] 
r 0.018168284 _9_ MAC  --- 0 RTS 44 [5ae 9 0 0] 
s 0.018178284 _9_ MAC  --- 0 CTS 38 [474 0 0 0] 
r 0.018483114 _0_ MAC  --- 0 CTS 38 [474 0 0 0] 
s 0.018493114 _0_ MAC  --- 0 AODV 102 [13a 9 0 800] ------- [0:255 4:255 30 9] [0x4 1 [0 4] 10.000000] (REPLY)
r 0.018511180 _13_ MAC  --- 0 AODV 48 [0 ffffffff b 800] ------- [11:255 -1:255 27 0] [0x2 4 1 [7 0] [10 4]] (REQUEST)
r 0.018511376 _18_ MAC  --- 0 AODV 48 [0 ffffffff b 800] ------- [11:255 -1:255 27 0] [0x2 4 1 [7 0] [10 4]] (REQUEST)
r 0.018511514 _19_ MAC  --- 0 AODV 48 [0 ffffffff b 800] ------- [11:255 -1:255 27 0] [0x2 4 1 [7 0] [10 4]] (REQUEST)
r 0.018536180 _13_ RTR  --- 0 AODV 48 [0 ffffffff b 800] ------- [11:255 -1:255 27 0] [0x2 4 1 [7 0] [10 4]] (REQUEST)
r 0.018536376 _18_ RTR  --- 0 AODV 48 [0 ffffffff b 800] ------- [11:255 -1:255 27 0] [0x2 4 1 [7 0] [10 4]] (REQUEST)
r 0.018536514 _19_ RTR  --- 0 AODV 48 [0 ffffffff b 800] ------- [11:255 -1:255 27 0] [0x2 4 1 [7 0] [10 4]] (REQUEST)
r 0.019309945 _9_ MAC  --- 0 AODV 44 [13a 9 0 800] ------- [0:255 4:255 30 9] [0x4 1 [0 4] 10.000000] (REPLY)
s 0.019319945 _9_ MAC  --- 0 ACK 38 [0 0 0 0] 
r 0.019334945 _9_ RTR  --- 0 AODV 44 [13a 9 0 800] ------- [0:255 4:255 30 9] [0x4 1 [0 4] 10.000000] (REPLY)
f 0.019334945 _9_ RTR  --- 0 AODV 44 [13a 9 0 800] ------- [0:255 4:255 29 4] [0x4 2 [0 4] 10.000000] (REPLY)
r 0.019624775 _0_ MAC  --- 0 ACK 38 [0 0 0 0] 
s 0.019804350 _2_ MAC  --- 0 AODV 106 [0 ffffffff 2 800] ------- [2:255 -1:255 28 0] [0x2 3 1 [1 0] [17 4]] (REQUEST)
r 0.020653001 _19_ MAC  --- 0 AODV 48 [0 ffffffff 2 800] ------- [2:255 -1:255 28 0] [0x2 3 1 [1 0] [17 4]] (REQUEST)
r 0.020653047 _3_ MAC  --- 0 AODV 48 [0 ffffffff 2 800] ------- [2:255 -1:255 28 0] [0x2 3 1 [1 0] [17 4]] (REQUEST)
r 0.020653054 _12_ MAC  --- 0 AODV 48 [0 ffffffff 2 800] ------- [2:255 -1:255 28 0] [0x2 3 1 [1 0] [17 4]] (REQUEST)
r 0.020653104 _16_ MAC  --- 0 AODV 48 [0 ffffffff 2 800] ------- [2:255 -1:255 28 0] [0x2 3 1 [1 0] [17 4]] (REQUEST)
r 0.020653111 _9_ MAC  --- 0 AODV 48 [0 ffffffff 2 800] ------- [2:255 -1:255 28 0] [0x2 3 1 [1 0] [17 4]] (REQUEST)
r 0.020678001 _19_ RTR  --- 0 AODV 48 [0 ffffffff 2 800] ------- [2:255 -1:255 28 0] [0x2 3 1 [1 0] [17 4]] (REQUEST)
r 0.020678047 _3_ RTR  --- 0 AODV 48 [0 ffffffff 2 800] ------- [2:255 -1:255 28 0] [0x2 3 1 [1 0] [17 4]] (REQUEST)
r 0.020678054 _12_ RTR  --- 0 AODV 48 [0 ffffffff 2 800] ------- [2:255 -1:255 28 0] [0x2 3 1 [1 0] [17 4]] (REQUEST)
r 0.020678104 _16_ RTR  --- 0 AODV 48 [0 ffffffff 2 800] ------- [2:255 -1:255 28 0] [0x2 3 1 [1 0] [17 4]] (REQUEST)
r 0.020678111 _9_ RTR  --- 0 AODV 48 [0 ffffffff 2 800] ------- [2:255 -1:255 28 0] [0x2 3 1 [1 0] [17 4]] (REQUEST)
s 0.021063111 _9_ MAC  --- 0 ARP 86 [0 ffffffff 9 806] ------- [REQUEST 9/9 0/4]
s 0.021106452 _19_ RTR  --- 0 AODV 48 [0 ffffffff b 800] ------- [19:255 -1:255 26 0] [0x2 5 1 [7 0] [10 4]] (REQUEST)
r 0.021751714 _4_ MAC  --- 0 ARP 28 [0 ffffffff 9 806] ------- [REQUEST 9/9 0/4]
r 0.021751872 _2_ MAC  --- 0 ARP 28 [0 ffffffff 9 806] ------- [REQUEST 9/9 0/4]
r 0.021751941 _0_ MAC  --- 0 ARP 28 [0 ffffffff 9 806] ------- [REQUEST 9/9 0/4]
s 0.021806714 _4_ MAC  --- 0 RTS 44 [52e 9 4 0] 
r 0.022159318 _9_ MAC  --- 0 RTS 44 [52e 9 4 0] 
s 0.022169318 _9_ MAC  --- 0 CTS 38 [3f4 4 0 0] 
r 0.022473921 _4_ MAC  --- 0 CTS 38 [3f4 4 0 0] 
s 0.022483921 _4_ MAC  --- 0 ARP 86 [13a 9 4 806] ------- [REPLY 4/4 9/9]
s 0.022968728 _19_ MAC  --- 0 AODV 106 [0 ffffffff 13 800] ------- [19:255 -1:255 26 0] [0x2 5 1 [7 0] [10 4]] (REQUEST)
r 0.023172525 _9_ MAC  --- 0 ARP 28 [13a 9 4 806] ------- [REPLY 4/4 9/9]
s 0.023182525 _9_ MAC  --- 0 ACK 38 [0 4 0 0] 
s 0.023296289 _3_ RTR  --- 0 AODV 48 [0 ffffffff 2 800] ------- [3:255 -1:255 27 0] [0x2 4 1 [1 0] [17 4]] (REQUEST)
r 0.023487128 _4_ MAC  --- 0 ACK 38 [0 4 0 0] 
r 0.023817092 _18_ MAC  --- 0 AODV 48 [0 ffffffff 13 800] ------- [19:255 -1:255 26 0] [0x2 5 1 [7 0] [10 4]] (REQUEST)
D 0.023817379 _2_ MAC  COL 0 AODV 106 [0 ffffffff 13 800] ------- [19:255 -1:255 26 0] [0x2 5 1 [7 0] [10 4]] (REQUEST)
r 0.023817401 _16_ MAC  --- 0 AODV 48 [0 ffffffff 13 800] ------- [19:255 -1:255 26 0] [0x2 5 1 [7 0] [10 4]] (REQUEST)
r 0.023817451 _11_ MAC  --- 0 AODV 48 [0 ffffffff 13 800] ------- [19:255 -1:255 26 0] [0x2 5 1 [7 0] [10 4]] (REQUEST)
r 0.023817465 _17_ MAC  --- 0 AODV 48 [0 ffffffff 13 800] ------- [19:255 -1:255 26 0] [0x2 5 1 [7 0] [10 4]] (REQUEST)
r 0.023842092 _18_ RTR  --- 0 AODV 48 [0 ffffffff 13 800] ------- [19:255 -1:255 26 0] [0x2 5 1 [7 0] [10 4]] (REQUEST)
r 0.023842401 _16_ RTR  --- 0 AODV 48 [0 ffffffff 13 800] ------- [19:255 -1:255 26 0] [0x2 5 1 [7 0] [10 4]] (REQUEST)
r 0.023842451 _11_ RTR  --- 0 AODV 48 [0 ffffffff 13 800] ------- [19:255 -1:255 26 0] [0x2 5 1 [7 0] [10 4]] (REQUEST)
r 0.023842465 _17_ RTR  --- 0 AODV 48 [0 ffffffff 13 800] ------- [19:255 -1:255 26 0] [0x2 5 1 [7 0] [10 4]] (REQUEST)
s 0.024000000 _5_ AGT  --- 18 cbr 1000 [0 0 0 0] ------- [5:0 5:1 32 0] [3] 0 0
r 0.024000000 _5_ AGT  --- 18 cbr 1000 [0 0 0 0] ------- [5:0 5:1 32 0] [3] 0 0
s 0.024000000 _6_ AGT  --- 19 cbr 1000 [0 0 0 0] ------- [6:0 6:1 32 0] [3] 0 0
r 0.024000000 _6_ AGT  --- 19 cbr 1000 [0 0 0 0] ------- [6:0 6:1 32 0] [3] 0 0
s 0.024000000 _4_ AGT  --- 20 cbr 1000 [0 0 0 0] ------- [4:0 0:0 32 0] [3] 0 0
r 0.024000000 _4_ RTR  --- 20 cbr 1000 [0 0 0 0] ------- [4:0 0:0 32 0] [3] 0 0
s 0.024000000 _17_ AGT  --- 21 cbr 1000 [0 0 0 0] ------- [17:0 1:0 32 0] [3] 0 0
r 0.024000000 _17_ RTR  --- 21 cbr 1000 [0 0 0 0] ------- [17:0 1:0 32 0] [3] 0 0
s 0.024000000 _8_ AGT  --- 22 cbr 1000 [0 0 0 0] ------- [8:0 6:2 32 0] [3] 0 0
r 0.024000000 _8_ RTR  --- 22 cbr 1000 [0 0 0 0] ------- [8:0 6:2 32 0] [3] 0 0
s 0.024000000 _10_ AGT  --- 23 cbr 1000 [0 0 0 0] ------- [10:0 7:0 32 0] [3] 0 0
r 0.024000000 _10_ RTR  --- 23 cbr 1000 [0 0 0 0] ------- [10:0 7:0 32 0] [3] 0 0
s 0.024391759 _12_ MAC  --- 0 AODV 106 [0 ffffffff c 800] ------- [12:255 -1:255 28 0] [0x2 3 1 [7 0] [10 4]] (REQUEST)
s 0.024934984 _9_ RTR  --- 0 AODV 48 [0 ffffffff 2 800] ------- [9:255 -1:255 27 0] [0x2 4 1 [1 0] [17 4]] (REQUEST)
s 0.025222615 _18_ RTR  --- 0 AODV 48 [0 ffffffff b 800] ------- [18:255 -1:255 26 0] [0x2 5 1 [7 0] [10 4]] (REQUEST)
r 0.025240266 _15_ MAC  --- 0 AODV 48 [0 ffffffff c 800] ------- [12:255 -1:255 28 0] [0x2 3 1 [7 0] [10 4]] (REQUEST)
r 0.025240459 _10_ MAC  --- 0 AODV 48 [0 ffffffff c 800] ------- [12:255 -1:255 28 0] [0x2 3 1 [7 0] [10 4]] (REQUEST)
r 0.025240463 _2_ MAC  --- 0 AODV 48 [0 ffffffff c 800] ------- [12:255 -1:255 28 0] [0x2 3 1 [7 0] [10 4]] (REQUEST)
r 0.025240518 _13_ MAC  --- 0 AODV 48 [0 ffffffff c 800] ------- [12:255 -1:255 28 0] [0x2 3 1 [7 0] [10 4]] (REQUEST)
r 0.025265266 _15_ RTR  --- 0 AODV 48 [0 ffffffff c 800] ------- [12:255 -1:255 28 0] [0x2 3 1 [7 0] [10 4]] (REQUEST)
r 0.025265459 _10_ RTR  --- 0 AODV 48 [0 ffffffff c 800] ------- [12:255 -1:255 28 0] [0x2 3 1 [7 0] [10 4]] (REQUEST)
r 0.025265463 _2_ RTR  --- 0 AODV 48 [0 ffffffff c 800] ------- [12:255 -1:255 28 0] [0x2 3 1 [7 0] [10 4]] (REQUEST)
r 0.025265518 _13_ RTR  --- 0 AODV 48 [0 ffffffff c 800] ------- [12:255 -1:255 28 0] [0x2 3 1 [7 0] [10 4]] (REQUEST)
s 0.025735148 _3_ MAC  --- 0 AODV 106 [0 ffffffff 3 800] ------- [3:255 -1:255 27 0] [0x2 4 1 [1 0] [17 4]] (REQUEST)
s 0.025909742 _16_ RTR  --- 0 AODV 48 [0 ffffffff 13 800] ------- [16:255 -1:255 25 0] [0x2 6 1 [7 0] [10 4]] (REQUEST)
s 0.026179032 _2_ RTR  --- 0 AODV 48 [0 ffffffff c 800] ------- [2:255 -1:255 27 0] [0x2 4 1 [7 0] [10 4]] (REQUEST)
s 0.026226451 _12_ RTR  --- 0 AODV 48 [0 ffffffff 2 800] ------- [12:255 -1:255 27 0] [0x2 4 1 [1 0] [17 4]] (REQUEST)
r 0.026583650 _16_ MAC  --- 0 AODV 48 [0 ffffffff 3 800] ------- [3:255 -1:255 27 0] [0x2 4 1 [1 0] [17 4]] (REQUEST)
r 0.026583846 _2_ MAC  --- 0 AODV 48 [0 ffffffff 3 800] ------- [3:255 -1:255 27 0] [0x2 4 1 [1 0] [17 4]] (REQUEST)
r 0.026583872 _1_ MAC  --- 0 AODV 48 [0 ffffffff 3 800] ------- [3:255 -1:255 27 0] [0x2 4 1 [1 0] [17 4]] (REQUEST)
r 0.026583936 _0_ MAC  --- 0 AODV 48 [0 ffffffff 3 800] ------- [3:255 -1:255 27 0] [0x2 4 1 [1 0] [17 4]] (REQUEST)
r 0.026608650 _16_ RTR  --- 0 AODV 48 [0 ffffffff 3 800] ------- [3:255 -1:255 27 0] [0x2 4 1 [1 0] [17 4]] (REQUEST)
r 0.026608846 _2_ RTR  --- 0 AODV 48 [0 ffffffff 3 800] ------- [3:255 -1:255 27 0] [0x2 4 1 [1 0] [17 4]] (REQUEST)
r 0.026608872 _1_ RTR  --- 0 AODV 48 [0 ffffffff 3 800] ------- [3:255 -1:255 27 0] [0x2 4 1 [1 0] [17 4]] (REQUEST)
s 0.026608872 _1_ RTR  --- 0 AODV 44 [0 0 0 0] ------- [1:255 17:255 30 3] [0x4 1 [1 4] 10.000000] (REPLY)
r 0.026608936 _0_ RTR  --- 0 AODV 48 [0 ffffffff 3 800] ------- [3:255 -1:255 27 0] [0x2 4 1 [1 0] [17 4]] (REQUEST)
s 0.026673650 _16_ MAC  --- 0 AODV 106 [0 ffffffff 10 800] ------- [16:255 -1:255 25 0] [0x2 6 1 [7 0] [10 4]] (REQUEST)
r 0.027522152 _3_ MAC  --- 0 AODV 48 [0 ffffffff 10 800] ------- [16:255 -1:255 25 0] [0x2 6 1 [7 0] [10 4]] (REQUEST)
r 0.027522323 _19_ MAC  --- 0 AODV 48 [0 ffffffff 10 800] ------- [16:255 -1:255 25 0] [0x2 6 1 [7 0] [10 4]] (REQUEST)
r 0.027522346 _17_ MAC  --- 0 AODV 48 [0 ffffffff 10 800] ------- [16:255 -1:255 25 0] [0x2 6 1 [7 0] [10 4]] (REQUEST)
r 0.027522404 _2_ MAC  --- 0 AODV 48 [0 ffffffff 10 800] ------- [16:255 -1:255 25 0] [0x2 6 1 [7 0] [10 4]] (REQUEST)
r 0.027522406 _1_ MAC  --- 0 AODV 48 [0 ffffffff 10 800] ------- [16:255 -1:255 25 0] [0x2 6 1 [7 0] [10 4]] (REQUEST)
r 0.027547152 _3_ RTR  --- 0 AODV 48 [0 ffffffff 10 800] ------- [16:255 -1:255 25 0] [0x2 6 1 [7 0] [10 4]] (REQUEST)
r 0.027547323 _19_ RTR  --- 0 AODV 48 [0 ffffffff 10 800] ------- [16:255 -1:255 25 0] [0x2 6 1 [7 0] [10 4]] (REQUEST)
r 0.027547346 _17_ RTR  --- 0 AODV 48 [0 ffffffff 10 800] ------- [16:255 -1:255 25 0] [0x2 6 1 [7 0] [10 4]] (REQUEST)
r 0.027547404 _2_ RTR  --- 0 AODV 48 [0 ffffffff 10 800] ------- [16:255 -1:255 25 0] [0x2 6 1 [7 0] [10 4]] (REQUEST)
r 0.027547406 _1_ RTR  --- 0 AODV 48 [0 ffffffff 10 800] ------- [16:255 -1:255 25 0] [0x2 6 1 [7 0] [10 4]] (REQUEST)
s 0.027652406 _1_ MAC  --- 0 ARP 86 [0 ffffffff 1 806] ------- [REQUEST 1/1 0/3]
s 0.028057076 _12_ MAC  --- 0 AODV 106 [0 ffffffff c 800] ------- [12:255 -1:255 27 0] [0x2 4 1 [1 0] [17 4]] (REQUEST)
r 0.028341129 _7_ MAC  --- 0 ARP 28 [0 ffffffff 1 806] ------- [REQUEST 1/1 0/3]
r 0.028341130 _3_ MAC  --- 0 ARP 28 [0 ffffffff 1 806] ------- [REQUEST 1/1 0/3]
r 0.028341162 _16_ MAC  --- 0 ARP 28 [0 ffffffff 1 806] ------- [REQUEST 1/1 0/3]
r 0.028905583 _15_ MAC  --- 0 AODV 48 [0 ffffffff c 800] ------- [12:255 -1:255 27 0] [0x2 4 1 [1 0] [17 4]] (REQUEST)
r 0.028905776 _10_ MAC  --- 0 AODV 48 [0 ffffffff c 800] ------- [12:255 -1:255 27 0] [0x2 4 1 [1 0] [17 4]] (REQUEST)
D 0.028905780 _2_ MAC  COL 0 AODV 106 [0 ffffffff c 800] ------- [12:255 -1:255 27 0] [0x2 4 1 [1 0] [17 4]] (REQUEST)
r 0.028905835 _13_ MAC  --- 0 AODV 48 [0 ffffffff c 800] ------- [12:255 -1:255 27 0] [0x2 4 1 [1 0] [17 4]] (REQUEST)
r 0.028930583 _15_ RTR  --- 0 AODV 48 [0 ffffffff c 800] ------- [12:255 -1:255 27 0] [0x2 4 1 [1 0] [17 4]] (REQUEST)
r 0.028930776 _10_ RTR  --- 0 AODV 48 [0 ffffffff c 800] ------- [12:255 -1:255 27 0] [0x2 4 1 [1 0] [17 4]] (REQUEST)
r 0.028930835 _13_ RTR  --- 0 AODV 48 [0 ffffffff c 800] ------- [12:255 -1:255 27 0] [0x2 4 1 [1 0] [17 4]] (REQUEST)
s 0.029360340 _18_ MAC  --- 0 AODV 106 [0 ffffffff 12 800] ------- [18:255 -1:255 26 0] [0x2 5 1 [7 0] [10 4]] (REQUEST)
r 0.030208704 _19_ MAC  --- 0 AODV 48 [0 ffffffff 12 800] ------- [18:255 -1:255 26 0] [0x2 5 1 [7 0] [10 4]] (REQUEST)
r 0.030208925 _11_ MAC  --- 0 AODV 48 [0 ffffffff 12 800] ------- [18:255 -1:255 26 0] [0x2 5 1 [7 0] [10 4]] (REQUEST)
r 0.030209018 _17_ MAC  --- 0 AODV 48 [0 ffffffff 12 800] ------- [18:255 -1:255 26 0] [0x2 5 1 [7 0] [10 4]] (REQUEST)
r 0.030233704 _19_ RTR  --- 0 AODV 48 [0 ffffffff 12 800] ------- [18:255 -1:255 26 0] [0x2 5 1 [7 0] [10 4]] (REQUEST)
r 0.030233925 _11_ RTR  --- 0 AODV 48 [0 ffffffff 12 800] ------- [18:255 -1:255 26 0] [0x2 5 1 [7 0] [10 4]] (REQUEST)
r 0.030234018 _17_ RTR  --- 0 AODV 48 [0 ffffffff 12 800] ------- [18:255 -1:255 26 0] [0x2 5 1 [7 0] [10 4]] (REQUEST)
s 0.030644109 _9_ MAC  --- 0 RTS 44 [5ae 4 9 0] 
s 0.030791837 _17_ RTR  --- 0 AODV 48 [0 ffffffff 13 800] ------- [17:255 -1:255 25 0] [0x2 6 1 [7 0] [10 4]] (REQUEST)
r 0.030996712 _4_ MAC  --- 0 RTS 44 [5ae 4 9 0] 
s 0.031006712 _4_ MAC  --- 0 CTS 38 [474 9 0 0] 
r 0.031311315 _9_ MAC  --- 0 CTS 38 [474 9 0 0] 
s 0.031321315 _9_ MAC  --- 0 AODV 102 [13a 4 9 800] ------- [0:255 4:255 29 4] [0x4 2 [0 4] 10.000000] (REPLY)
s 0.031466837 _17_ MAC  --- 0 AODV 106 [0 ffffffff 11 800] ------- [17:255 -1:255 25 0] [0x2 6 1 [7 0] [10 4]] (REQUEST)
s 0.032000000 _5_ AGT  --- 24 cbr 1000 [0 0 0 0] ------- [5:0 5:1 32 0] [4] 0 0
r 0.032000000 _5_ AGT  --- 24 cbr 1000 [0 0 0 0] ------- [5:0 5:1 32 0] [4] 0 0
s 0.032000000 _6_ AGT  --- 25 cbr 1000 [0 0 0 0] ------- [6:0 6:1 32 0] [4] 0 0
r 0.032000000 _6_ AGT  --- 25 cbr 1000 [0 0 0 0] ------- [6:0 6:1 32 0] [4] 0 0
s 0.032000000 _4_ AGT  --- 26 cbr 1000 [0 0 0 0] ------- [4:0 0:0 32 0] [4] 0 0
r 0.032000000 _4_ RTR  --- 26 cbr 1000 [0 0 0 0] ------- [4:0 0:0 32 0] [4] 0 0
s 0.032000000 _17_ AGT  --- 27 cbr 1000 [0 0 0 0] ------- [17:0 1:0 32 0] [4] 0 0
r 0.032000000 _17_ RTR  --- 27 cbr 1000 [0 0 0 0] ------- [17:0 1:0 32 0] [4] 0 0
s 0.032000000 _8_ AGT  --- 28 cbr 1000 [0 0 0 0] ------- [8:0 6:2 32 0] [4] 0 0
r 0.032000000 _8_ RTR  --- 28 cbr 1000 [0 0 0 0] ------- [8:0 6:2 32 0] [4] 0 0
s 0.032000000 _10_ AGT  --- 29 cbr 1000 [0 0 0 0] ------- [10:0 7:0 32 0] [4] 0 0
r 0.032000000 _10_ RTR  --- 29 cbr 1000 [0 0 0 0] ------- [10:0 7:0 32 0] [4] 0 0
r 0.032137919 _4_ MAC  --- 0 AODV 44 [13a 4 9 800] ------- [0:255 4:255 29 4] [0x4 2 [0 4] 10.000000] (REPLY)
s 0.032147919 _4_ MAC  --- 0 ACK 38 [0 9 0 0] 
r 0.032162919 _4_ RTR  --- 0 AODV 44 [13a 4 9 800] ------- [0:255 4:255 29 4] [0x4 2 [0 4] 10.000000] (REPLY)
s 0.032162919 _4_ RTR  --- 2 cbr 1020 [0 0 0 0] ------- [4:0 0:0 30 9] [0] 0 0
D 0.032315515 _18_ MAC  COL 0 AODV 106 [0 ffffffff 11 800] ------- [17:255 -1:255 25 0] [0x2 6 1 [7 0] [10 4]] (REQUEST)
D 0.032315534 _16_ MAC  COL 0 AODV 106 [0 ffffffff 11 800] ------- [17:255 -1:255 25 0] [0x2 6 1 [7 0] [10 4]] (REQUEST)
D 0.032315574 _19_ MAC  COL 0 AODV 106 [0 ffffffff 11 800] ------- [17:255 -1:255 25 0] [0x2 6 1 [7 0] [10 4]] (REQUEST)