s 0.000000000 _5_ AGT  --- 0 cbr 1000 [0 0 0 0] ------- [5:0 5:1 32 0] [0] 0 0
r 0.000000000 _5_ AGT  --- 0 cbr 1000 [0 0 0 0] ------- [5:0 5:1 32 0] [0] 0 0
s 0.000000000 _6_ AGT  --- 1 cbr 1000 [0 0 0 0] ------- [6:0 6:1 32 0] [0] 0 0
r 0.000000000 _6_ AGT  --- 1 cbr 1000 [0 0 0 0] ------- [6:0 6:1 32 0] [0] 0 0
s 0.000000000 _4_ AGT  --- 2 cbr 1000 [0 0 0 0] ------- [4:0 0:0 32 0] [0] 0 0
r 0.000000000 _4_ RTR  --- 2 cbr 1000 [0 0 0 0] ------- [4:0 0:0 32 0] [0] 0 0
s 0.000000000 _17_ AGT  --- 3 cbr 1000 [0 0 0 0] ------- [17:0 1:0 32 0] [0] 0 0
r 0.000000000 _17_ RTR  --- 3 cbr 1000 [0 0 0 0] ------- [17:0 1:0 32 0] [0] 0 0
s 0.000000000 _8_ AGT  --- 4 cbr 1000 [0 0 0 0] ------- [8:0 6:2 32 0] [0] 0 0
r 0.000000000 _8_ RTR  --- 4 cbr 1000 [0 0 0 0] ------- [8:0 6:2 32 0] [0] 0 0
s 0.000000000 _10_ AGT  --- 5 cbr 1000 [0 0 0 0] ------- [10:0 7:0 32 0] [0] 0 0
r 0.000000000 _10_ RTR  --- 5 cbr 1000 [0 0 0 0] ------- [10:0 7:0 32 0] [0] 0 0
s 0.000000000 _18_ AGT  --- 6 cbr 1000 [0 0 0 0] ------- [18:0 18:1 32 0] [0] 0 0
r 0.000000000 _18_ AGT  --- 6 cbr 1000 [0 0 0 0] ------- [18:0 18:1 32 0] [0] 0 0
s 0.000000000 _11_ AGT  --- 7 cbr 1000 [0 0 0 0] ------- [11:0 7:1 32 0] [0] 0 0
r 0.000000000 _11_ RTR  --- 7 cbr 1000 [0 0 0 0] ------- [11:0 7:1 32 0] [0] 0 0
s 0.000000000 _4_ RTR  --- 0 AODV 48 [0 0 0 0] ------- [4:255 -1:255 30 0] [0x2 1 1 [0 0] [4 4]] (REQUEST)
s 0.000000000 _17_ RTR  --- 0 AODV 48 [0 0 0 0] ------- [17:255 -1:255 30 0] [0x2 1 1 [1 0] [17 4]] (REQUEST)
s 0.000000000 _8_ RTR  --- 0 AODV 48 [0 0 0 0] ------- [8:255 -1:255 30 0] [0x2 1 1 [6 0] [8 4]] (REQUEST)
s 0.000000000 _10_ RTR  --- 0 AODV 48 [0 0 0 0] ------- [10:255 -1:255 30 0] [0x2 1 1 [7 0] [10 4]] (REQUEST)
s 0.000000000 _11_ RTR  --- 0 AODV 48 [0 0 0 0] ------- [11:255 -1:255 30 0] [0x2 1 1 [7 0] [11 4]] (REQUEST)
s 0.000115000 _17_ MAC  --- 0 AODV 106 [0 ffffffff 11 800] ------- [17:255 -1:255 30 0] [0x2 1 1 [1 0] [17 4]] (REQUEST)
s 0.000375000 _10_ MAC  --- 0 AODV 106 [0 ffffffff a 800] ------- [10:255 -1:255 30 0] [0x2 1 1 [7 0] [10 4]] (REQUEST)
s 0.000635000 _8_ MAC  --- 0 AODV 106 [0 ffffffff 8 800] ------- [8:255 -1:255 30 0] [0x2 1 1 [6 0] [8 4]] (REQUEST)
r 0.000963678 _18_ MAC  --- 0 AODV 48 [0 ffffffff 11 800] ------- [17:255 -1:255 30 0] [0x2 1 1 [1 0] [17 4]] (REQUEST)
r 0.000963696 _16_ MAC  --- 0 AODV 48 [0 ffffffff 11 800] ------- [17:255 -1:255 30 0] [0x2 1 1 [1 0] [17 4]] (REQUEST)
r 0.000963736 _19_ MAC  --- 0 AODV 48 [0 ffffffff 11 800] ------- [17:255 -1:255 30 0] [0x2 1 1 [1 0] [17 4]] (REQUEST)
r 0.000988678 _18_ RTR  --- 0 AODV 48 [0 ffffffff 11 800] ------- [17:255 -1:255 30 0] [0x2 1 1 [1 0] [17 4]] (REQUEST)
r 0.000988696 _16_ RTR  --- 0 AODV 48 [0 ffffffff 11 800] ------- [17:255 -1:255 30 0] [0x2 1 1 [1 0] [17 4]] (REQUEST)
r 0.000988736 _19_ RTR  --- 0 AODV 48 [0 ffffffff 11 800] ------- [17:255 -1:255 30 0] [0x2 1 1 [1 0] [17 4]] (REQUEST)
r 0.001223495 _15_ MAC  --- 0 AODV 48 [0 ffffffff a 800] ------- [10:255 -1:255 30 0] [0x2 1 1 [7 0] [10 4]] (REQUEST)
D 0.001223701 _12_ MAC  COL 0 AODV 106 [0 ffffffff a 800] ------- [10:255 -1:255 30 0] [0x2 1 1 [7 0] [10 4]] (REQUEST)
r 0.001223729 _14_ MAC  --- 0 AODV 48 [0 ffffffff a 800] ------- [10:255 -1:255 30 0] [0x2 1 1 [7 0] [10 4]] (REQUEST)
r 0.001248495 _15_ RTR  --- 0 AODV 48 [0 ffffffff a 800] ------- [10:255 -1:255 30 0] [0x2 1 1 [7 0] [10 4]] (REQUEST)
r 0.001248729 _14_ RTR  --- 0 AODV 48 [0 ffffffff a 800] ------- [10:255 -1:255 30 0] [0x2 1 1 [7 0] [10 4]] (REQUEST)
r 0.001483479 _5_ MAC  --- 0 AODV 48 [0 ffffffff 8 800] ------- [8:255 -1:255 30 0] [0x2 1 1 [6 0] [8 4]] (REQUEST)
D 0.001483696 _7_ MAC  COL 0 AODV 106 [0 ffffffff 8 800] ------- [8:255 -1:255 30 0] [0x2 1 1 [6 0] [8 4]] (REQUEST)
r 0.001508479 _5_ RTR  --- 0 AODV 48 [0 ffffffff 8 800] ------- [8:255 -1:255 30 0] [0x2 1 1 [6 0] [8 4]] (REQUEST)
s 0.001798376 _4_ MAC  --- 0 AODV 106 [0 ffffffff 4 800] ------- [4:255 -1:255 30 0] [0x2 1 1 [0 0] [4 4]] (REQUEST)
s 0.001918427 _11_ MAC  --- 0 AODV 106 [0 ffffffff b 800] ------- [11:255 -1:255 30 0] [0x2 1 1 [7 0] [11 4]] (REQUEST)
s 0.001936424 _5_ RTR  --- 0 AODV 48 [0 ffffffff 8 800] ------- [5:255 -1:255 29 0] [0x2 2 1 [6 0] [8 4]] (REQUEST)
s 0.002171424 _5_ MAC  --- 0 AODV 106 [0 ffffffff 5 800] ------- [5:255 -1:255 29 0] [0x2 2 1 [6 0] [8 4]] (REQUEST)
r 0.002646980 _9_ MAC  --- 0 AODV 48 [0 ffffffff 4 800] ------- [4:255 -1:255 30 0] [0x2 1 1 [0 0] [4 4]] (REQUEST)
r 0.002671980 _9_ RTR  --- 0 AODV 48 [0 ffffffff 4 800] ------- [4:255 -1:255 30 0] [0x2 1 1 [0 0] [4 4]] (REQUEST)
r 0.002766816 _13_ MAC  --- 0 AODV 48 [0 ffffffff b 800] ------- [11:255 -1:255 30 0] [0x2 1 1 [7 0] [11 4]] (REQUEST)
r 0.002767012 _18_ MAC  --- 0 AODV 48 [0 ffffffff b 800] ------- [11:255 -1:255 30 0] [0x2 1 1 [7 0] [11 4]] (REQUEST)
r 0.002767150 _19_ MAC  --- 0 AODV 48 [0 ffffffff b 800] ------- [11:255 -1:255 30 0] [0x2 1 1 [7 0] [11 4]] (REQUEST)
r 0.002791816 _13_ RTR  --- 0 AODV 48 [0 ffffffff b 800] ------- [11:255 -1:255 30 0] [0x2 1 1 [7 0] [11 4]] (REQUEST)
r 0.002792012 _18_ RTR  --- 0 AODV 48 [0 ffffffff b 800] ------- [11:255 -1:255 30 0] [0x2 1 1 [7 0] [11 4]] (REQUEST)
r 0.002792150 _19_ RTR  --- 0 AODV 48 [0 ffffffff b 800] ------- [11:255 -1:255 30 0] [0x2 1 1 [7 0] [11 4]] (REQUEST)
r 0.003019903 _8_ MAC  --- 0 AODV 48 [0 ffffffff 5 800] ------- [5:255 -1:255 29 0] [0x2 2 1 [6 0] [8 4]] (REQUEST)
r 0.003044903 _8_ RTR  --- 0 AODV 48 [0 ffffffff 5 800] ------- [5:255 -1:255 29 0] [0x2 2 1 [6 0] [8 4]] (REQUEST)
s 0.003334754 _19_ RTR  --- 0 AODV 48 [0 ffffffff 11 800] ------- [19:255 -1:255 29 0] [0x2 2 1 [1 0] [17 4]] (REQUEST)
s 0.003629754 _19_ MAC  --- 0 AODV 106 [0 ffffffff 13 800] ------- [19:255 -1:255 29 0] [0x2 2 1 [1 0] [17 4]] (REQUEST)
s 0.003733400 _18_ RTR  --- 0 AODV 48 [0 ffffffff b 800] ------- [18:255 -1:255 29 0] [0x2 2 1 [7 0] [11 4]] (REQUEST)
s 0.004118295 _18_ RTR  --- 0 AODV 48 [0 ffffffff 11 800] ------- [18:255 -1:255 29 0] [0x2 2 1 [1 0] [17 4]] (REQUEST)
s 0.004339285 _15_ RTR  --- 0 AODV 48 [0 ffffffff a 800] ------- [15:255 -1:255 29 0] [0x2 2 1 [7 0] [10 4]] (REQUEST)
r 0.004478118 _18_ MAC  --- 0 AODV 48 [0 ffffffff 13 800] ------- [19:255 -1:255 29 0] [0x2 2 1 [1 0] [17 4]] (REQUEST)
r 0.004478405 _2_ MAC  --- 0 AODV 48 [0 ffffffff 13 800] ------- [19:255 -1:255 29 0] [0x2 2 1 [1 0] [17 4]] (REQUEST)
r 0.004478427 _16_ MAC  --- 0 AODV 48 [0 ffffffff 13 800] ------- [19:255 -1:255 29 0] [0x2 2 1 [1 0] [17 4]] (REQUEST)
r 0.004478477 _11_ MAC  --- 0 AODV 48 [0 ffffffff 13 800] ------- [19:255 -1:255 29 0] [0x2 2 1 [1 0] [17 4]] (REQUEST)
r 0.004478490 _17_ MAC  --- 0 AODV 48 [0 ffffffff 13 800] ------- [19:255 -1:255 29 0] [0x2 2 1 [1 0] [17 4]] (REQUEST)
r 0.004503118 _18_ RTR  --- 0 AODV 48 [0 ffffffff 13 800] ------- [19:255 -1:255 29 0] [0x2 2 1 [1 0] [17 4]] (REQUEST)
r 0.004503405 _2_ RTR  --- 0 AODV 48 [0 ffffffff 13 800] ------- [19:255 -1:255 29 0] [0x2 2 1 [1 0] [17 4]] (REQUEST)
r 0.004503427 _16_ RTR  --- 0 AODV 48 [0 ffffffff 13 800] ------- [19:255 -1:255 29 0] [0x2 2 1 [1 0] [17 4]] (REQUEST)
r 0.004503477 _11_ RTR  --- 0 AODV 48 [0 ffffffff 13 800] ------- [19:255 -1:255 29 0] [0x2 2 1 [1 0] [17 4]] (REQUEST)
r 0.004503490 _17_ RTR  --- 0 AODV 48 [0 ffffffff 13 800] ------- [19:255 -1:255 29 0] [0x2 2 1 [1 0] [17 4]] (REQUEST)
s 0.004539868 _13_ RTR  --- 0 AODV 48 [0 ffffffff b 800] ------- [13:255 -1:255 29 0] [0x2 2 1 [7 0] [11 4]] (REQUEST)
s 0.004548118 _18_ MAC  --- 0 AODV 106 [0 ffffffff 12 800] ------- [18:255 -1:255 29 0] [0x2 2 1 [7 0] [11 4]] (REQUEST)
r 0.005396481 _19_ MAC  --- 0 AODV 48 [0 ffffffff 12 800] ------- [18:255 -1:255 29 0] [0x2 2 1 [7 0] [11 4]] (REQUEST)
r 0.005396702 _11_ MAC  --- 0 AODV 48 [0 ffffffff 12 800] ------- [18:255 -1:255 29 0] [0x2 2 1 [7 0] [11 4]] (REQUEST)
r 0.005396795 _17_ MAC  --- 0 AODV 48 [0 ffffffff 12 800] ------- [18:255 -1:255 29 0] [0x2 2 1 [7 0] [11 4]] (REQUEST)
r 0.005421481 _19_ RTR  --- 0 AODV 48 [0 ffffffff 12 800] ------- [18:255 -1:255 29 0] [0x2 2 1 [7 0] [11 4]] (REQUEST)
r 0.005421702 _11_ RTR  --- 0 AODV 48 [0 ffffffff 12 800] ------- [18:255 -1:255 29 0] [0x2 2 1 [7 0] [11 4]] (REQUEST)
r 0.005421795 _17_ RTR  --- 0 AODV 48 [0 ffffffff 12 800] ------- [18:255 -1:255 29 0] [0x2 2 1 [7 0] [11 4]] (REQUEST)
s 0.005986118 _18_ MAC  --- 0 AODV 106 [0 ffffffff 12 800] ------- [18:255 -1:255 29 0] [0x2 2 1 [1 0] [17 4]] (REQUEST)
r 0.006834481 _19_ MAC  --- 0 AODV 48 [0 ffffffff 12 800] ------- [18:255 -1:255 29 0] [0x2 2 1 [1 0] [17 4]] (REQUEST)
r 0.006834702 _11_ MAC  --- 0 AODV 48 [0 ffffffff 12 800] ------- [18:255 -1:255 29 0] [0x2 2 1 [1 0] [17 4]] (REQUEST)
r 0.006834795 _17_ MAC  --- 0 AODV 48 [0 ffffffff 12 800] ------- [18:255 -1:255 29 0] [0x2 2 1 [1 0] [17 4]] (REQUEST)
r 0.006859481 _19_ RTR  --- 0 AODV 48 [0 ffffffff 12 800] ------- [18:255 -1:255 29 0] [0x2 2 1 [1 0] [17 4]] (REQUEST)
r 0.006859702 _11_ RTR  --- 0 AODV 48 [0 ffffffff 12 800] ------- [18:255 -1:255 29 0] [0x2 2 1 [1 0] [17 4]] (REQUEST)
r 0.006859795 _17_ RTR  --- 0 AODV 48 [0 ffffffff 12 800] ------- [18:255 -1:255 29 0] [0x2 2 1 [1 0] [17 4]] (REQUEST)
s 0.007329497 _15_ MAC  --- 0 AODV 106 [0 ffffffff f 800] ------- [15:255 -1:255 29 0] [0x2 2 1 [7 0] [10 4]] (REQUEST)
s 0.007834052 _17_ RTR  --- 0 AODV 48 [0 ffffffff 12 800] ------- [17:255 -1:255 28 0] [0x2 3 1 [7 0] [11 4]] (REQUEST)
s 0.008000000 _5_ AGT  --- 8 cbr 1000 [0 0 0 0] ------- [5:0 5:1 32 0] [1] 0 0
r 0.008000000 _5_ AGT  --- 8 cbr 1000 [0 0 0 0] ------- [5:0 5:1 32 0] [1] 0 0
s 0.008000000 _6_ AGT  --- 9 cbr 1000 [0 0 0 0] ------- [6:0 6:1 32 0] [1] 0 0
r 0.008000000 _6_ AGT  --- 9 cbr 1000 [0 0 0 0] ------- [6:0 6:1 32 0] [1] 0 0
s 0.008000000 _4_ AGT  --- 10 cbr 1000 [0 0 0 0] ------- [4:0 0:0 32 0] [1] 0 0
r 0.008000000 _4_ RTR  --- 10 cbr 1000 [0 0 0 0] ------- [4:0 0:0 32 0] [1] 0 0
s 0.008000000 _17_ AGT  --- 11 cbr 1000 [0 0 0 0] ------- [17:0 1:0 32 0] [1] 0 0
r 0.008000000 _17_ RTR  --- 11 cbr 1000 [0 0 0 0] ------- [17:0 1:0 32 0] [1] 0 0
s 0.008000000 _8_ AGT  --- 12 cbr 1000 [0 0 0 0] ------- [8:0 6:2 32 0] [1] 0 0
r 0.008000000 _8_ RTR  --- 12 cbr 1000 [0 0 0 0] ------- [8:0 6:2 32 0] [1] 0 0
s 0.008000000 _10_ AGT  --- 13 cbr 1000 [0 0 0 0] ------- [10:0 7:0 32 0] [1] 0 0
r 0.008000000 _10_ RTR  --- 13 cbr 1000 [0 0 0 0] ------- [10:0 7:0 32 0] [1] 0 0
s 0.008000000 _18_ AGT  --- 14 cbr 1000 [0 0 0 0] ------- [18:0 18:1 32 0] [1] 0 0
r 0.008000000 _18_ AGT  --- 14 cbr 1000 [0 0 0 0] ------- [18:0 18:1 32 0] [1] 0 0
s 0.008000000 _11_ AGT  --- 15 cbr 1000 [0 0 0 0] ------- [11:0 7:1 32 0] [1] 0 0
r 0.008000000 _11_ RTR  --- 15 cbr 1000 [0 0 0 0] ------- [11:0 7:1 32 0] [1] 0 0
r 0.008177983 _14_ MAC  --- 0 AODV 48 [0 ffffffff f 800] ------- [15:255 -1:255 29 0] [0x2 2 1 [7 0] [10 4]] (REQUEST)
r 0.008177992 _10_ MAC  --- 0 AODV 48 [0 ffffffff f 800] ------- [15:255 -1:255 29 0] [0x2 2 1 [7 0] [10 4]] (REQUEST)
r 0.008178004 _12_ MAC  --- 0 AODV 48 [0 ffffffff f 800] ------- [15:255 -1:255 29 0] [0x2 2 1 [7 0] [10 4]] (REQUEST)
r 0.008178049 _13_ MAC  --- 0 AODV 48 [0 ffffffff f 800] ------- [15:255 -1:255 29 0] [0x2 2 1 [7 0] [10 4]] (REQUEST)
r 0.008202983 _14_ RTR  --- 0 AODV 48 [0 ffffffff f 800] ------- [15:255 -1:255 29 0] [0x2 2 1 [7 0] [10 4]] (REQUEST)
r 0.008202992 _10_ RTR  --- 0 AODV 48 [0 ffffffff f 800] ------- [15:255 -1:255 29 0] [0x2 2 1 [7 0] [10 4]] (REQUEST)
r 0.008203004 _12_ RTR  --- 0 AODV 48 [0 ffffffff f 800] ------- [15:255 -1:255 29 0] [0x2 2 1 [7 0] [10 4]] (REQUEST)
r 0.008203049 _13_ RTR  --- 0 AODV 48 [0 ffffffff f 800] ------- [15:255 -1:255 29 0] [0x2 2 1 [7 0] [10 4]] (REQUEST)
s 0.008209052 _17_ MAC  --- 0 AODV 106 [0 ffffffff 11 800] ------- [17:255 -1:255 28 0] [0x2 3 1 [7 0] [11 4]] (REQUEST)
r 0.009057729 _18_ MAC  --- 0 AODV 48 [0 ffffffff 11 800] ------- [17:255 -1:255 28 0] [0x2 3 1 [7 0] [11 4]] (REQUEST)
r 0.009057748 _16_ MAC  --- 0 AODV 48 [0 ffffffff 11 800] ------- [17:255 -1:255 28 0] [0x2 3 1 [7 0] [11 4]] (REQUEST)
r 0.009057788 _19_ MAC  --- 0 AODV 48 [0 ffffffff 11 800] ------- [17:255 -1:255 28 0] [0x2 3 1 [7 0] [11 4]] (REQUEST)
r 0.009082729 _18_ RTR  --- 0 AODV 48 [0 ffffffff 11 800] ------- [17:255 -1:255 28 0] [0x2 3 1 [7 0] [11 4]] (REQUEST)
r 0.009082748 _16_ RTR  --- 0 AODV 48 [0 ffffffff 11 800] ------- [17:255 -1:255 28 0] [0x2 3 1 [7 0] [11 4]] (REQUEST)
r 0.009082788 _19_ RTR  --- 0 AODV 48 [0 ffffffff 11 800] ------- [17:255 -1:255 28 0] [0x2 3 1 [7 0] [11 4]] (REQUEST)
s 0.009153457 _16_ RTR  --- 0 AODV 48 [0 ffffffff 11 800] ------- [16:255 -1:255 29 0] [0x2 2 1 [1 0] [17 4]] (REQUEST)
s 0.009328457 _16_ MAC  --- 0 AODV 106 [0 ffffffff 10 800] ------- [16:255 -1:255 29 0] [0x2 2 1 [1 0] [17 4]] (REQUEST)
s 0.009611964 _14_ RTR  --- 0 AODV 48 [0 ffffffff a 800] ------- [14:255 -1:255 29 0] [0x2 2 1 [7 0] [10 4]] (REQUEST)
r 0.010176959 _3_ MAC  --- 0 AODV 48 [0 ffffffff 10 800] ------- [16:255 -1:255 29 0] [0x2 2 1 [1 0] [17 4]] (REQUEST)
r 0.010177130 _19_ MAC  --- 0 AODV 48 [0 ffffffff 10 800] ------- [16:255 -1:255 29 0] [0x2 2 1 [1 0] [17 4]] (REQUEST)
r 0.010177153 _17_ MAC  --- 0 AODV 48 [0 ffffffff 10 800] ------- [16:255 -1:255 29 0] [0x2 2 1 [1 0] [17 4]] (REQUEST)
r 0.010177211 _2_ MAC  --- 0 AODV 48 [0 ffffffff 10 800] ------- [16:255 -1:255 29 0] [0x2 2 1 [1 0] [17 4]] (REQUEST)
r 0.010177213 _1_ MAC  --- 0 AODV 48 [0 ffffffff 10 800] ------- [16:255 -1:255 29 0] [0x2 2 1 [1 0] [17 4]] (REQUEST)
r 0.010201959 _3_ RTR  --- 0 AODV 48 [0 ffffffff 10 800] ------- [16:255 -1:255 29 0] [0x2 2 1 [1 0] [17 4]] (REQUEST)
r 0.010202130 _19_ RTR  --- 0 AODV 48 [0 ffffffff 10 800] ------- [16:255 -1:255 29 0] [0x2 2 1 [1 0] [17 4]] (REQUEST)
r 0.010202153 _17_ RTR  --- 0 AODV 48 [0 ffffffff 10 800] ------- [16:255 -1:255 29 0] [0x2 2 1 [1 0] [17 4]] (REQUEST)
r 0.010202211 _2_ RTR  --- 0 AODV 48 [0 ffffffff 10 800] ------- [16:255 -1:255 29 0] [0x2 2 1 [1 0] [17 4]] (REQUEST)
r 0.010202213 _1_ RTR  --- 0 AODV 48 [0 ffffffff 10 800] ------- [16:255 -1:255 29 0] [0x2 2 1 [1 0] [17 4]] (REQUEST)
s 0.010202213 _1_ RTR  --- 0 AODV 44 [0 0 0 0] ------- [1:255 17:255 30 16] [0x4 1 [1 4] 10.000000] (REPLY)
s 0.010206964 _14_ MAC  --- 0 AODV 106 [0 ffffffff e 800] ------- [14:255 -1:255 29 0] [0x2 2 1 [7 0] [10 4]] (REQUEST)
s 0.010837213 _1_ MAC  --- 0 ARP 86 [0 ffffffff 1 806] ------- [REQUEST 1/1 0/16]
s 0.010862436 _19_ RTR  --- 0 AODV 48 [0 ffffffff b 800] ------- [19:255 -1:255 29 0] [0x2 2 1 [7 0] [11 4]] (REQUEST)
r 0.011055450 _15_ MAC  --- 0 AODV 48 [0 ffffffff e 800] ------- [14:255 -1:255 29 0] [0x2 2 1 [7 0] [10 4]] (REQUEST)
r 0.011055659 _13_ MAC  --- 0 AODV 48 [0 ffffffff e 800] ------- [14:255 -1:255 29 0] [0x2 2 1 [7 0] [10 4]] (REQUEST)
r 0.011055693 _10_ MAC  --- 0 AODV 48 [0 ffffffff e 800] ------- [14:255 -1:255 29 0] [0x2 2 1 [7 0] [10 4]] (REQUEST)
r 0.011080450 _15_ RTR  --- 0 AODV 48 [0 ffffffff e 800] ------- [14:255 -1:255 29 0] [0x2 2 1 [7 0] [10 4]] (REQUEST)
r 0.011080659 _13_ RTR  --- 0 AODV 48 [0 ffffffff e 800] ------- [14:255 -1:255 29 0] [0x2 2 1 [7 0] [10 4]] (REQUEST)
r 0.011080693 _10_ RTR  --- 0 AODV 48 [0 ffffffff e 800] ------- [14:255 -1:255 29 0] [0x2 2 1 [7 0] [10 4]] (REQUEST)
s 0.011265659 _13_ MAC  --- 0 AODV 106 [0 ffffffff d 800] ------- [13:255 -1:255 29 0] [0x2 2 1 [7 0] [11 4]] (REQUEST)
s 0.011269257 _9_ RTR  --- 0 AODV 48 [0 ffffffff 4 800] ------- [9:255 -1:255 29 0] [0x2 2 1 [0 0] [4 4]] (REQUEST)
s 0.011426473 _2_ RTR  --- 0 AODV 48 [0 ffffffff 13 800] ------- [2:255 -1:255 28 0] [0x2 3 1 [1 0] [17 4]] (REQUEST)
r 0.011525936 _7_ MAC  --- 0 ARP 28 [0 ffffffff 1 806] ------- [REQUEST 1/1 0/16]
r 0.011525937 _3_ MAC  --- 0 ARP 28 [0 ffffffff 1 806] ------- [REQUEST 1/1 0/16]
r 0.011525969 _16_ MAC  --- 0 ARP 28 [0 ffffffff 1 806] ------- [REQUEST 1/1 0/16]
r 0.012114048 _11_ MAC  --- 0 AODV 48 [0 ffffffff d 800] ------- [13:255 -1:255 29 0] [0x2 2 1 [7 0] [11 4]] (REQUEST)
r 0.012114211 _15_ MAC  --- 0 AODV 48 [0 ffffffff d 800] ------- [13:255 -1:255 29 0] [0x2 2 1 [7 0] [11 4]] (REQUEST)
r 0.012114354 _14_ MAC  --- 0 AODV 48 [0 ffffffff d 800] ------- [13:255 -1:255 29 0] [0x2 2 1 [7 0] [11 4]] (REQUEST)
r 0.012114418 _12_ MAC  --- 0 AODV 48 [0 ffffffff d 800] ------- [13:255 -1:255 29 0] [0x2 2 1 [7 0] [11 4]] (REQUEST)
r 0.012139048 _11_ RTR  --- 0 AODV 48 [0 ffffffff d 800] ------- [13:255 -1:255 29 0] [0x2 2 1 [7 0] [11 4]] (REQUEST)
r 0.012139211 _15_ RTR  --- 0 AODV 48 [0 ffffffff d 800] ------- [13:255 -1:255 29 0] [0x2 2 1 [7 0] [11 4]] (REQUEST)
r 0.012139354 _14_ RTR  --- 0 AODV 48 [0 ffffffff d 800] ------- [13:255 -1:255 29 0] [0x2 2 1 [7 0] [11 4]] (REQUEST)
r 0.012139418 _12_ RTR  --- 0 AODV 48 [0 ffffffff d 800] ------- [13:255 -1:255 29 0] [0x2 2 1 [7 0] [11 4]] (REQUEST)
s 0.012258240 _13_ RTR  --- 0 AODV 48 [0 ffffffff f 800] ------- [13:255 -1:255 28 0] [0x2 3 1 [7 0] [10 4]] (REQUEST)
s 0.012443659 _13_ MAC  --- 0 AODV 106 [0 ffffffff d 800] ------- [13:255 -1:255 28 0] [0x2 3 1 [7 0] [10 4]] (REQUEST)
s 0.013124150 _11_ RTR  --- 0 AODV 48 [0 ffffffff 13 800] ------- [11:255 -1:255 28 0] [0x2 3 1 [1 0] [17 4]] (REQUEST)
s 0.013124823 _16_ RTR  --- 0 AODV 48 [0 ffffffff 11 800] ------- [16:255 -1:255 27 0] [0x2 4 1 [7 0] [11 4]] (REQUEST)
r 0.013292048 _11_ MAC  --- 0 AODV 48 [0 ffffffff d 800] ------- [13:255 -1:255 28 0] [0x2 3 1 [7 0] [10 4]] (REQUEST)
r 0.013292211 _15_ MAC  --- 0 AODV 48 [0 ffffffff d 800] ------- [13:255 -1:255 28 0] [0x2 3 1 [7 0] [10 4]] (REQUEST)
r 0.013292354 _14_ MAC  --- 0 AODV 48 [0 ffffffff d 800] ------- [13:255 -1:255 28 0] [0x2 3 1 [7 0] [10 4]] (REQUEST)
r 0.013292418 _12_ MAC  --- 0 AODV 48 [0 ffffffff d 800] ------- [13:255 -1:255 28 0] [0x2 3 1 [7 0] [10 4]] (REQUEST)
r 0.013317048 _11_ RTR  --- 0 AODV 48 [0 ffffffff d 800] ------- [13:255 -1:255 28 0] [0x2 3 1 [7 0] [10 4]] (REQUEST)
r 0.013317211 _15_ RTR  --- 0 AODV 48 [0 ffffffff d 800] ------- [13:255 -1:255 28 0] [0x2 3 1 [7 0] [10 4]] (REQUEST)
r 0.013317354 _14_ RTR  --- 0 AODV 48 [0 ffffffff d 800] ------- [13:255 -1:255 28 0] [0x2 3 1 [7 0] [10 4]] (REQUEST)
r 0.013317418 _12_ RTR  --- 0 AODV 48 [0 ffffffff d 800] ------- [13:255 -1:255 28 0] [0x2 3 1 [7 0] [10 4]] (REQUEST)
s 0.013662048 _11_ MAC  --- 0 AODV 106 [0 ffffffff b 800] ------- [11:255 -1:255 28 0] [0x2 3 1 [1 0] [17 4]] (REQUEST)
s 0.014047356 _9_ MAC  --- 0 AODV 106 [0 ffffffff 9 800] ------- [9:255 -1:255 29 0] [0x2 2 1 [0 0] [4 4]] (REQUEST)
r 0.014510437 _13_ MAC  --- 0 AODV 48 [0 ffffffff b 800] ------- [11:255 -1:255 28 0] [0x2 3 1 [1 0] [17 4]] (REQUEST)
r 0.014510632 _18_ MAC  --- 0 AODV 48 [0 ffffffff b 800] ------- [11:255 -1:255 28 0] [0x2 3 1 [1 0] [17 4]] (REQUEST)
r 0.014510771 _19_ MAC  --- 0 AODV 48 [0 ffffffff b 800] ------- [11:255 -1:255 28 0] [0x2 3 1 [1 0] [17 4]] (REQUEST)
r 0.014535437 _13_ RTR  --- 0 AODV 48 [0 ffffffff b 800] ------- [11:255 -1:255 28 0] [0x2 3 1 [1 0] [17 4]] (REQUEST)
r 0.014535632 _18_ RTR  --- 0 AODV 48 [0 ffffffff b 800] ------- [11:255 -1:255 28 0] [0x2 3 1 [1 0] [17 4]] (REQUEST)
r 0.014535771 _19_ RTR  --- 0 AODV 48 [0 ffffffff b 800] ------- [11:255 -1:255 28 0] [0x2 3 1 [1 0] [17 4]] (REQUEST)
r 0.014895959 _4_ MAC  --- 0 AODV 48 [0 ffffffff 9 800] ------- [9:255 -1:255 29 0] [0x2 2 1 [0 0] [4 4]] (REQUEST)
D 0.014896117 _2_ MAC  COL 0 AODV 106 [0 ffffffff 9 800] ------- [9:255 -1:255 29 0] [0x2 2 1 [0 0] [4 4]] (REQUEST)
r 0.014896187 _0_ MAC  --- 0 AODV 48 [0 ffffffff 9 800] ------- [9:255 -1:255 29 0] [0x2 2 1 [0 0] [4 4]] (REQUEST)
r 0.014920959 _4_ RTR  --- 0 AODV 48 [0 ffffffff 9 800] ------- [9:255 -1:255 29 0] [0x2 2 1 [0 0] [4 4]] (REQUEST)
r 0.014921187 _0_ RTR  --- 0 AODV 48 [0 ffffffff 9 800] ------- [9:255 -1:255 29 0] [0x2 2 1 [0 0] [4 4]] (REQUEST)
s 0.014921187 _0_ RTR  --- 0 AODV 44 [0 0 0 0] ------- [0:255 4:255 30 9] [0x4 1 [0 4] 10.000000] (REPLY)
s 0.015216187 _0_ MAC  --- 0 ARP 86 [0 ffffffff 0 806] ------- [REQUEST 0/0 0/9]
r 0.015904975 _3_ MAC  --- 0 ARP 28 [0 ffffffff 0 806] ------- [REQUEST 0/0 0/9]
r 0.015905017 _9_ MAC  --- 0 ARP 28 [0 ffffffff 0 806] ------- [REQUEST 0/0 0/9]
s 0.016000000 _5_ AGT  --- 16 cbr 1000 [0 0 0 0] ------- [5:0 5:1 32 0] [2] 0 0
r 0.016000000 _5_ AGT  --- 16 cbr 1000 [0 0 0 0] ------- [5:0 5:1 32 0] [2] 0 0
s 0.016000000 _6_ AGT  --- 17 cbr 1000 [0 0 0 0] ------- [6:0 6:1 32 0] [2] 0 0
r 0.016000000 _6_ AGT  --- 17 cbr 1000 [0 0 0 0] ------- [6:0 6:1 32 0] [2] 0 0
s 0.016000000 _4_ AGT  --- 18 cbr 1000 [0 0 0 0] ------- [4:0 0:0 32 0] [2] 0 0
r 0.016000000 _4_ RTR  --- 18 cbr 1000 [0 0 0 0] ------- [4:0 0:0 32 0] [2] 0 0
s 0.016000000 _17_ AGT  --- 19 cbr 1000 [0 0 0 0] ------- [17:0 1:0 32 0] [2] 0 0
r 0.016000000 _17_ RTR  --- 19 cbr 1000 [0 0 0 0] ------- [17:0 1:0 32 0] [2] 0 0
s 0.016000000 _8_ AGT  --- 20 cbr 1000 [0 0 0 0] ------- [8:0 6:2 32 0] [2] 0 0
r 0.016000000 _8_ RTR  --- 20 cbr 1000 [0 0 0 0] ------- [8:0 6:2 32 0] [2] 0 0
s 0.016000000 _10_ AGT  --- 21 cbr 1000 [0 0 0 0] ------- [10:0 7:0 32 0] [2] 0 0
r 0.016000000 _10_ RTR  --- 21 cbr 1000 [0 0 0 0] ------- [10:0 7:0 32 0] [2] 0 0
s 0.016000000 _18_ AGT  --- 22 cbr 1000 [0 0 0 0] ------- [18:0 18:1 32 0] [2] 0 0
r 0.016000000 _18_ AGT  --- 22 cbr 1000 [0 0 0 0] ------- [18:0 18:1 32 0] [2] 0 0
s 0.016000000 _11_ AGT  --- 23 cbr 1000 [0 0 0 0] ------- [11:0 7:1 32 0] [2] 0 0
r 0.016000000 _11_ RTR  --- 23 cbr 1000 [0 0 0 0] ------- [11:0 7:1 32 0] [2] 0 0
s 0.016240017 _9_ MAC  --- 0 RTS 44 [52e 0 9 0] 
r 0.016592848 _0_ MAC  --- 0 RTS 44 [52e 0 9 0] 
s 0.016602848 _0_ MAC  --- 0 CTS 38 [3f4 9 0 0] 
r 0.016907678 _9_ MAC  --- 0 CTS 38 [3f4 9 0 0] 
s 0.016917678 _9_ MAC  --- 0 ARP 86 [13a 0 9 806] ------- [REPLY 9/9 0/0]
s 0.017252459 _12_ RTR  --- 0 AODV 48 [0 ffffffff f 800] ------- [12:255 -1:255 28 0] [0x2 3 1 [7 0] [10 4]] (REQUEST)
s 0.017573921 _11_ RTR  --- 0 AODV 48 [0 ffffffff d 800] ------- [11:255 -1:255 27 0] [0x2 4 1 [7 0] [10 4]] (REQUEST)
s 0.017587573 _14_ RTR  --- 0 AODV 48 [0 ffffffff d 800] ------- [14:255 -1:255 28 0] [0x2 3 1 [7 0] [11 4]] (REQUEST)
r 0.017606509 _0_ MAC  --- 0 ARP 28 [13a 0 9 806] ------- [REPLY 9/9 0/0]
s 0.017616509 _0_ MAC  --- 0 ACK 38 [0 9 0 0] 
s 0.017808607 _13_ RTR  --- 0 AODV 48 [0 ffffffff b 800] ------- [13:255 -1:255 27 0] [0x2 4 1 [1 0] [17 4]] (REQUEST)
s 0.017902573 _14_ MAC  --- 0 AODV 106 [0 ffffffff e 800] ------- [14:255 -1:255 28 0] [0x2 3 1 [7 0] [11 4]] (REQUEST)
r 0.017921340 _9_ MAC  --- 0 ACK 38 [0 9 0 0] 
s 0.017990509 _0_ MAC  --- 0 RTS 44 [5ae 9 0 0] 
r 0.018343340 _9_ MAC  --- 0 RTS 44 [5ae 9 0 0] 
s 0.018353340 _9_ MAC  --- 0 CTS 38 [474 0 0 0] 
r 0.018658170 _0_ MAC  --- 0 CTS 38 [474 0 0 0] 
s 0.018668170 _0_ MAC  --- 0 AODV 102 [13a 9 0 800] ------- [0:255 4:255 30 9] [0x4 1 [0 4] 10.000000] (REPLY)
r 0.018751059 _15_ MAC  --- 0 AODV 48 [0 ffffffff e 800] ------- [14:255 -1:255 28 0] [0x2 3 1 [7 0] [11 4]] (REQUEST)
r 0.018751268 _13_ MAC  --- 0 AODV 48 [0 ffffffff e 800] ------- [14:255 -1:255 28 0] [0x2 3 1 [7 0] [11 4]] (REQUEST)
r 0.018751302 _10_ MAC  --- 0 AODV 48 [0 ffffffff e 800] ------- [14:255 -1:255 28 0] [0x2 3 1 [7 0] [11 4]] (REQUEST)
r 0.018776059 _15_ RTR  --- 0 AODV 48 [0 ffffffff e 800] ------- [14:255 -1:255 28 0] [0x2 3 1 [7 0] [11 4]] (REQUEST)
r 0.018776268 _13_ RTR  --- 0 AODV 48 [0 ffffffff e 800] ------- [14:255 -1:255 28 0] [0x2 3 1 [7 0] [11 4]] (REQUEST)
r 0.018776302 _10_ RTR  --- 0 AODV 48 [0 ffffffff e 800] ------- [14:255 -1:255 28 0] [0x2 3 1 [7 0] [11 4]] (REQUEST)
s 0.019115437 _3_ RTR  --- 0 AODV 48 [0 ffffffff 10 800] ------- [3:255 -1:255 28 0] [0x2 3 1 [1 0] [17 4]] (REQUEST)
s 0.019125943 _15_ RTR  --- 0 AODV 48 [0 ffffffff d 800] ------- [15:255 -1:255 28 0] [0x2 3 1 [7 0] [11 4]] (REQUEST)
s 0.019193037 _13_ MAC  --- 0 AODV 106 [0 ffffffff d 800] ------- [13:255 -1:255 27 0] [0x2 4 1 [1 0] [17 4]] (REQUEST)
s 0.019277636 _10_ RTR  --- 0 AODV 48 [0 ffffffff e 800] ------- [10:255 -1:255 27 0] [0x2 4 1 [7 0] [11 4]] (REQUEST)
r 0.019485001 _9_ MAC  --- 0 AODV 44 [13a 9 0 800] ------- [0:255 4:255 30 9] [0x4 1 [0 4] 10.000000] (REPLY)
s 0.019495001 _9_ MAC  --- 0 ACK 38 [0 0 0 0] 
r 0.019510001 _9_ RTR  --- 0 AODV 44 [13a 9 0 800] ------- [0:255 4:255 30 9] [0x4 1 [0 4] 10.000000] (REPLY)
f 0.019510001 _9_ RTR  --- 0 AODV 44 [13a 9 0 800] ------- [0:255 4:255 29 4] [0x4 2 [0 4] 10.000000] (REPLY)
r 0.019799832 _0_ MAC  --- 0 ACK 38 [0 0 0 0] 
r 0.020041426 _11_ MAC  --- 0 AODV 48 [0 ffffffff d 800] ------- [13:255 -1:255 27 0] [0x2 4 1 [1 0] [17 4]] (REQUEST)
r 0.020041589 _15_ MAC  --- 0 AODV 48 [0 ffffffff d 800] ------- [13:255 -1:255 27 0] [0x2 4 1 [1 0] [17 4]] (REQUEST)
r 0.020041732 _14_ MAC  --- 0 AODV 48 [0 ffffffff d 800] ------- [13:255 -1:255 27 0] [0x2 4 1 [1 0] [17 4]] (REQUEST)
D 0.020041796 _12_ MAC  COL 0 AODV 106 [0 ffffffff d 800] ------- [13:255 -1:255 27 0] [0x2 4 1 [1 0] [17 4]] (REQUEST)
r 0.020066426 _11_ RTR  --- 0 AODV 48 [0 ffffffff d 800] ------- [13:255 -1:255 27 0] [0x2 4 1 [1 0] [17 4]] (REQUEST)
r 0.020066589 _15_ RTR  --- 0 AODV 48 [0 ffffffff d 800] ------- [13:255 -1:255 27 0] [0x2 4 1 [1 0] [17 4]] (REQUEST)
r 0.020066732 _14_ RTR  --- 0 AODV 48 [0 ffffffff d 800] ------- [13:255 -1:255 27 0] [0x2 4 1 [1 0] [17 4]] (REQUEST)
s 0.020311426 _11_ MAC  --- 0 AODV 106 [0 ffffffff b 800] ------- [11:255 -1:255 27 0] [0x2 4 1 [7 0] [10 4]] (REQUEST)
s 0.020756734 _9_ MAC  --- 0 ARP 86 [0 ffffffff 9 806] ------- [REQUEST 9/9 0/4]
s 0.020905975 _12_ RTR  --- 0 AODV 48 [0 ffffffff d 800] ------- [12:255 -1:255 28 0] [0x2 3 1 [7 0] [11 4]] (REQUEST)
r 0.021159815 _13_ MAC  --- 0 AODV 48 [0 ffffffff b 800] ------- [11:255 -1:255 27 0] [0x2 4 1 [7 0] [10 4]] (REQUEST)
r 0.021160010 _18_ MAC  --- 0 AODV 48 [0 ffffffff b 800] ------- [11:255 -1:255 27 0] [0x2 4 1 [7 0] [10 4]] (REQUEST)
r 0.021160149 _19_ MAC  --- 0 AODV 48 [0 ffffffff b 800] ------- [11:255 -1:255 27 0] [0x2 4 1 [7 0] [10 4]] (REQUEST)
r 0.021184815 _13_ RTR  --- 0 AODV 48 [0 ffffffff b 800] ------- [11:255 -1:255 27 0] [0x2 4 1 [7 0] [10 4]] (REQUEST)
r 0.021185010 _18_ RTR  --- 0 AODV 48 [0 ffffffff b 800] ------- [11:255 -1:255 27 0] [0x2 4 1 [7 0] [10 4]] (REQUEST)
r 0.021185149 _19_ RTR  --- 0 AODV 48 [0 ffffffff b 800] ------- [11:255 -1:255 27 0] [0x2 4 1 [7 0] [10 4]] (REQUEST)
r 0.021445337 _4_ MAC  --- 0 ARP 28 [0 ffffffff 9 806] ------- [REQUEST 9/9 0/4]
D 0.021445495 _2_ MAC  COL 0 ARP 86 [0 ffffffff 9 806] ------- [REQUEST 9/9 0/4]
r 0.021445564 _0_ MAC  --- 0 ARP 28 [0 ffffffff 9 806] ------- [REQUEST 9/9 0/4]
s 0.021879743 _12_ MAC  --- 0 AODV 106 [0 ffffffff c 800] ------- [12:255 -1:255 28 0] [0x2 3 1 [7 0] [10 4]] (REQUEST)
r 0.022728251 _15_ MAC  --- 0 AODV 48 [0 ffffffff c 800] ------- [12:255 -1:255 28 0] [0x2 3 1 [7 0] [10 4]] (REQUEST)
r 0.022728444 _10_ MAC  --- 0 AODV 48 [0 ffffffff c 800] ------- [12:255 -1:255 28 0] [0x2 3 1 [7 0] [10 4]] (REQUEST)
r 0.022728448 _2_ MAC  --- 0 AODV 48 [0 ffffffff c 800] ------- [12:255 -1:255 28 0] [0x2 3 1 [7 0] [10 4]] (REQUEST)
r 0.022728503 _13_ MAC  --- 0 AODV 48 [0 ffffffff c 800] ------- [12:255 -1:255 28 0] [0x2 3 1 [7 0] [10 4]] (REQUEST)
r 0.022753251 _15_ RTR  --- 0 AODV 48 [0 ffffffff c 800] ------- [12:255 -1:255 28 0] [0x2 3 1 [7 0] [10 4]] (REQUEST)
r 0.022753444 _10_ RTR  --- 0 AODV 48 [0 ffffffff c 800] ------- [12:255 -1:255 28 0] [0x2 3 1 [7 0] [10 4]] (REQUEST)
r 0.022753448 _2_ RTR  --- 0 AODV 48 [0 ffffffff c 800] ------- [12:255 -1:255 28 0] [0x2 3 1 [7 0] [10 4]] (REQUEST)
r 0.022753503 _13_ RTR  --- 0 AODV 48 [0 ffffffff c 800] ------- [12:255 -1:255 28 0] [0x2 3 1 [7 0] [10 4]] (REQUEST)
s 0.022858444 _10_ MAC  --- 0 AODV 106 [0 ffffffff a 800] ------- [10:255 -1:255 27 0] [0x2 4 1 [7 0] [11 4]] (REQUEST)
s 0.023243132 _3_ MAC  --- 0 AODV 106 [0 ffffffff 3 800] ------- [3:255 -1:255 28 0] [0x2 3 1 [1 0] [17 4]] (REQUEST)
r 0.023706939 _15_ MAC  --- 0 AODV 48 [0 ffffffff a 800] ------- [10:255 -1:255 27 0] [0x2 4 1 [7 0] [11 4]] (REQUEST)
r 0.023707145 _12_ MAC  --- 0 AODV 48 [0 ffffffff a 800] ------- [10:255 -1:255 27 0] [0x2 4 1 [7 0] [11 4]] (REQUEST)
r 0.023707173 _14_ MAC  --- 0 AODV 48 [0 ffffffff a 800] ------- [10:255 -1:255 27 0] [0x2 4 1 [7 0] [11 4]] (REQUEST)
r 0.023731939 _15_ RTR  --- 0 AODV 48 [0 ffffffff a 800] ------- [10:255 -1:255 27 0] [0x2 4 1 [7 0] [11 4]] (REQUEST)
r 0.023732145 _12_ RTR  --- 0 AODV 48 [0 ffffffff a 800] ------- [10:255 -1:255 27 0] [0x2 4 1 [7 0] [11 4]] (REQUEST)
r 0.023732173 _14_ RTR  --- 0 AODV 48 [0 ffffffff a 800] ------- [10:255 -1:255 27 0] [0x2 4 1 [7 0] [11 4]] (REQUEST)
s 0.023776939 _15_ MAC  --- 0 AODV 106 [0 ffffffff f 800] ------- [15:255 -1:255 28 0] [0x2 3 1 [7 0] [11 4]] (REQUEST)
D 0.023778095 _2_ MAC  COL 0 AODV 106 [0 ffffffff 3 800] ------- [3:255 -1:255 28 0] [0x2 3 1 [1 0] [17 4]] (REQUEST)
s 0.024000000 _5_ AGT  --- 24 cbr 1000 [0 0 0 0] ------- [5:0 5:1 32 0] [3] 0 0
r 0.024000000 _5_ AGT  --- 24 cbr 1000 [0 0 0 0] ------- [5:0 5:1 32 0] [3] 0 0
s 0.024000000 _6_ AGT  --- 25 cbr 1000 [0 0 0 0] ------- [6:0 6:1 32 0] [3] 0 0
r 0.024000000 _6_ AGT  --- 25 cbr 1000 [0 0 0 0] ------- [6:0 6:1 32 0] [3] 0 0
s 0.024000000 _4_ AGT  --- 26 cbr 1000 [0 0 0 0] ------- [4:0 0:0 32 0] [3] 0 0
r 0.024000000 _4_ RTR  --- 26 cbr 1000 [0 0 0 0] ------- [4:0 0:0 32 0] [3] 0 0
s 0.024000000 _17_ AGT  --- 27 cbr 1000 [0 0 0 0] ------- [17:0 1:0 32 0] [3] 0 0
r 0.024000000 _17_ RTR  --- 27 cbr 1000 [0 0 0 0] ------- [17:0 1:0 32 0] [3] 0 0
s 0.024000000 _8_ AGT  --- 28 cbr 1000 [0 0 0 0] ------- [8:0 6:2 32 0] [3] 0 0
r 0.024000000 _8_ RTR  --- 28 cbr 1000 [0 0 0 0] ------- [8:0 6:2 32 0] [3] 0 0
s 0.024000000 _10_ AGT  --- 29 cbr 1000 [0 0 0 0] ------- [10:0 7:0 32 0] [3] 0 0
r 0.024000000 _10_ RTR  --- 29 cbr 1000 [0 0 0 0] ------- [10:0 7:0 32 0] [3] 0 0
s 0.024000000 _18_ AGT  --- 30 cbr 1000 [0 0 0 0] ------- [18:0 18:1 32 0] [3] 0 0
r 0.024000000 _18_ AGT  --- 30 cbr 1000 [0 0 0 0] ------- [18:0 18:1 32 0] [3] 0 0
s 0.024000000 _11_ AGT  --- 31 cbr 1000 [0 0 0 0] ------- [11:0 7:1 32 0] [3] 0 0
r 0.024000000 _11_ RTR  --- 31 cbr 1000 [0 0 0 0] ------- [11:0 7:1 32 0] [3] 0 0