s 0.000000000 _5_ AGT  --- 0 cbr 1000 [0 0 0 0] ------- [5:0 5:1 32 0] [0] 0 0
r 0.000000000 _5_ AGT  --- 0 cbr 1000 [0 0 0 0] ------- [5:0 5:1 32 0] [0] 0 0
s 0.000000000 _6_ AGT  --- 1 cbr 1000 [0 0 0 0] ------- [6:0 6:1 32 0] [0] 0 0
r 0.000000000 _6_ AGT  --- 1 cbr 1000 [0 0 0 0] ------- [6:0 6:1 32 0] [0] 0 0
s 0.000000000 _4_ AGT  --- 2 cbr 1000 [0 0 0 0] ------- [4:0 0:0 32 0] [0] 0 0
r 0.000000000 _4_ RTR  --- 2 cbr 1000 [0 0 0 0] ------- [4:0 0:0 32 0] [0] 0 0
s 0.000000000 _17_ AGT  --- 3 cbr 1000 [0 0 0 0] ------- [17:0 1:0 32 0] [0] 0 0
r 0.000000000 _17_ RTR  --- 3 cbr 1000 [0 0 0 0] ------- [17:0 1:0 32 0] [0] 0 0
s 0.000000000 _8_ AGT  --- 4 cbr 1000 [0 0 0 0] ------- [8:0 6:2 32 0] [0] 0 0
r 0.000000000 _8_ RTR  --- 4 cbr 1000 [0 0 0 0] ------- [8:0 6:2 32 0] [0] 0 0
s 0.000000000 _10_ AGT  --- 5 cbr 1000 [0 0 0 0] ------- [10:0 7:0 32 0] [0] 0 0
r 0.000000000 _10_ RTR  --- 5 cbr 1000 [0 0 0 0] ------- [10:0 7:0 32 0] [0] 0 0
s 0.000000000 _18_ AGT  --- 6 cbr 1000 [0 0 0 0] ------- [18:0 18:1 32 0] [0] 0 0
r 0.000000000 _18_ AGT  --- 6 cbr 1000 [0 0 0 0] ------- [18:0 18:1 32 0] [0] 0 0
s 0.000000000 _11_ AGT  --- 7 cbr 1000 [0 0 0 0] ------- [11:0 7:1 32 0] [0] 0 0
r 0.000000000 _11_ RTR  --- 7 cbr 1000 [0 0 0 0] ------- [11:0 7:1 32 0] [0] 0 0
s 0.000000000 _14_ AGT  --- 8 cbr 1000 [0 0 0 0] ------- [14:0 3:0 32 0] [0] 0 0
r 0.000000000 _14_ RTR  --- 8 cbr 1000 [0 0 0 0] ------- [14:0 3:0 32 0] [0] 0 0
s 0.000000000 _4_ RTR  --- 0 AODV 48 [0 0 0 0] ------- [4:255 -1:255 30 0] [0x2 1 1 [0 0] [4 4]] (REQUEST)
s 0.000000000 _17_ RTR  --- 0 AODV 48 [0 0 0 0] ------- [17:255 -1:255 30 0] [0x2 1 1 [1 0] [17 4]] (REQUEST)
s 0.000000000 _8_ RTR  --- 0 AODV 48 [0 0 0 0] ------- [8:255 -1:255 30 0] [0x2 1 1 [6 0] [8 4]] (REQUEST)
s 0.000000000 _10_ RTR  --- 0 AODV 48 [0 0 0 0] ------- [10:255 -1:255 30 0] [0x2 1 1 [7 0] [10 4]] (REQUEST)
s 0.000000000 _11_ RTR  --- 0 AODV 48 [0 0 0 0] ------- [11:255 -1:255 30 0] [0x2 1 1 [7 0] [11 4]] (REQUEST)
s 0.000000000 _14_ RTR  --- 0 AODV 48 [0 0 0 0] ------- [14:255 -1:255 30 0] [0x2 1 1 [3 0] [14 4]] (REQUEST)
s 0.000075000 _14_ MAC  --- 0 AODV 106 [0 ffffffff e 800] ------- [14:255 -1:255 30 0] [0x2 1 1 [3 0] [14 4]] (REQUEST)
s 0.000115000 _17_ MAC  --- 0 AODV 106 [0 ffffffff 11 800] ------- [17:255 -1:255 30 0] [0x2 1 1 [1 0] [17 4]] (REQUEST)
s 0.000535000 _4_ MAC  --- 0 AODV 106 [0 ffffffff 4 800] ------- [4:255 -1:255 30 0] [0x2 1 1 [0 0] [4 4]] (REQUEST)
s 0.000635000 _8_ MAC  --- 0 AODV 106 [0 ffffffff 8 800] ------- [8:255 -1:255 30 0] [0x2 1 1 [6 0] [8 4]] (REQUEST)
r 0.000923486 _15_ MAC  --- 0 AODV 48 [0 ffffffff e 800] ------- [14:255 -1:255 30 0] [0x2 1 1 [3 0] [14 4]] (REQUEST)
r 0.000923695 _13_ MAC  --- 0 AODV 48 [0 ffffffff e 800] ------- [14:255 -1:255 30 0] [0x2 1 1 [3 0] [14 4]] (REQUEST)
r 0.000923729 _10_ MAC  --- 0 AODV 48 [0 ffffffff e 800] ------- [14:255 -1:255 30 0] [0x2 1 1 [3 0] [14 4]] (REQUEST)
r 0.000948486 _15_ RTR  --- 0 AODV 48 [0 ffffffff e 800] ------- [14:255 -1:255 30 0] [0x2 1 1 [3 0] [14 4]] (REQUEST)
r 0.000948695 _13_ RTR  --- 0 AODV 48 [0 ffffffff e 800] ------- [14:255 -1:255 30 0] [0x2 1 1 [3 0] [14 4]] (REQUEST)
r 0.000948729 _10_ RTR  --- 0 AODV 48 [0 ffffffff e 800] ------- [14:255 -1:255 30 0] [0x2 1 1 [3 0] [14 4]] (REQUEST)
D 0.000963678 _18_ MAC  COL 0 AODV 106 [0 ffffffff 11 800] ------- [17:255 -1:255 30 0] [0x2 1 1 [1 0] [17 4]] (REQUEST)
r 0.000963696 _16_ MAC  --- 0 AODV 48 [0 ffffffff 11 800] ------- [17:255 -1:255 30 0] [0x2 1 1 [1 0] [17 4]] (REQUEST)
D 0.000963736 _19_ MAC  COL 0 AODV 106 [0 ffffffff 11 800] ------- [17:255 -1:255 30 0] [0x2 1 1 [1 0] [17 4]] (REQUEST)
r 0.000988696 _16_ RTR  --- 0 AODV 48 [0 ffffffff 11 800] ------- [17:255 -1:255 30 0] [0x2 1 1 [1 0] [17 4]] (REQUEST)
r 0.001383603 _9_ MAC  --- 0 AODV 48 [0 ffffffff 4 800] ------- [4:255 -1:255 30 0] [0x2 1 1 [0 0] [4 4]] (REQUEST)
r 0.001408603 _9_ RTR  --- 0 AODV 48 [0 ffffffff 4 800] ------- [4:255 -1:255 30 0] [0x2 1 1 [0 0] [4 4]] (REQUEST)
r 0.001483479 _5_ MAC  --- 0 AODV 48 [0 ffffffff 8 800] ------- [8:255 -1:255 30 0] [0x2 1 1 [6 0] [8 4]] (REQUEST)
D 0.001483696 _7_ MAC  COL 0 AODV 106 [0 ffffffff 8 800] ------- [8:255 -1:255 30 0] [0x2 1 1 [6 0] [8 4]] (REQUEST)
r 0.001508479 _5_ RTR  --- 0 AODV 48 [0 ffffffff 8 800] ------- [8:255 -1:255 30 0] [0x2 1 1 [6 0] [8 4]] (REQUEST)
s 0.001698262 _11_ MAC  --- 0 AODV 106 [0 ffffffff b 800] ------- [11:255 -1:255 30 0] [0x2 1 1 [7 0] [11 4]] (REQUEST)
s 0.001836549 _9_ RTR  --- 0 AODV 48 [0 ffffffff 4 800] ------- [9:255 -1:255 29 0] [0x2 2 1 [0 0] [4 4]] (REQUEST)
s 0.002151549 _9_ MAC  --- 0 AODV 106 [0 ffffffff 9 800] ------- [9:255 -1:255 29 0] [0x2 2 1 [0 0] [4 4]] (REQUEST)
r 0.002546651 _13_ MAC  --- 0 AODV 48 [0 ffffffff b 800] ------- [11:255 -1:255 30 0] [0x2 1 1 [7 0] [11 4]] (REQUEST)
r 0.002546847 _18_ MAC  --- 0 AODV 48 [0 ffffffff b 800] ------- [11:255 -1:255 30 0] [0x2 1 1 [7 0] [11 4]] (REQUEST)
r 0.002546985 _19_ MAC  --- 0 AODV 48 [0 ffffffff b 800] ------- [11:255 -1:255 30 0] [0x2 1 1 [7 0] [11 4]] (REQUEST)
r 0.002571651 _13_ RTR  --- 0 AODV 48 [0 ffffffff b 800] ------- [11:255 -1:255 30 0] [0x2 1 1 [7 0] [11 4]] (REQUEST)
r 0.002571847 _18_ RTR  --- 0 AODV 48 [0 ffffffff b 800] ------- [11:255 -1:255 30 0] [0x2 1 1 [7 0] [11 4]] (REQUEST)
r 0.002571985 _19_ RTR  --- 0 AODV 48 [0 ffffffff b 800] ------- [11:255 -1:255 30 0] [0x2 1 1 [7 0] [11 4]] (REQUEST)
s 0.002646561 _5_ RTR  --- 0 AODV 48 [0 ffffffff 8 800] ------- [5:255 -1:255 29 0] [0x2 2 1 [6 0] [8 4]] (REQUEST)
s 0.002921561 _5_ MAC  --- 0 AODV 106 [0 ffffffff 5 800] ------- [5:255 -1:255 29 0] [0x2 2 1 [6 0] [8 4]] (REQUEST)
D 0.002922813 _0_ MAC  COL 0 AODV 106 [0 ffffffff 9 800] ------- [9:255 -1:255 29 0] [0x2 2 1 [0 0] [4 4]] (REQUEST)
r 0.003000152 _4_ MAC  --- 0 AODV 48 [0 ffffffff 9 800] ------- [9:255 -1:255 29 0] [0x2 2 1 [0 0] [4 4]] (REQUEST)
D 0.003000310 _2_ MAC  COL 0 AODV 106 [0 ffffffff 9 800] ------- [9:255 -1:255 29 0] [0x2 2 1 [0 0] [4 4]] (REQUEST)
r 0.003025152 _4_ RTR  --- 0 AODV 48 [0 ffffffff 9 800] ------- [9:255 -1:255 29 0] [0x2 2 1 [0 0] [4 4]] (REQUEST)
s 0.003294712 _13_ RTR  --- 0 AODV 48 [0 ffffffff e 800] ------- [13:255 -1:255 29 0] [0x2 2 1 [3 0] [14 4]] (REQUEST)
s 0.003435246 _13_ MAC  --- 0 AODV 106 [0 ffffffff d 800] ------- [13:255 -1:255 29 0] [0x2 2 1 [3 0] [14 4]] (REQUEST)
s 0.003513236 _18_ RTR  --- 0 AODV 48 [0 ffffffff b 800] ------- [18:255 -1:255 29 0] [0x2 2 1 [7 0] [11 4]] (REQUEST)
r 0.003770040 _8_ MAC  --- 0 AODV 48 [0 ffffffff 5 800] ------- [5:255 -1:255 29 0] [0x2 2 1 [6 0] [8 4]] (REQUEST)
r 0.003795040 _8_ RTR  --- 0 AODV 48 [0 ffffffff 5 800] ------- [5:255 -1:255 29 0] [0x2 2 1 [6 0] [8 4]] (REQUEST)
r 0.004283635 _11_ MAC  --- 0 AODV 48 [0 ffffffff d 800] ------- [13:255 -1:255 29 0] [0x2 2 1 [3 0] [14 4]] (REQUEST)
r 0.004283798 _15_ MAC  --- 0 AODV 48 [0 ffffffff d 800] ------- [13:255 -1:255 29 0] [0x2 2 1 [3 0] [14 4]] (REQUEST)
r 0.004283941 _14_ MAC  --- 0 AODV 48 [0 ffffffff d 800] ------- [13:255 -1:255 29 0] [0x2 2 1 [3 0] [14 4]] (REQUEST)
r 0.004284005 _12_ MAC  --- 0 AODV 48 [0 ffffffff d 800] ------- [13:255 -1:255 29 0] [0x2 2 1 [3 0] [14 4]] (REQUEST)
r 0.004308635 _11_ RTR  --- 0 AODV 48 [0 ffffffff d 800] ------- [13:255 -1:255 29 0] [0x2 2 1 [3 0] [14 4]] (REQUEST)
r 0.004308798 _15_ RTR  --- 0 AODV 48 [0 ffffffff d 800] ------- [13:255 -1:255 29 0] [0x2 2 1 [3 0] [14 4]] (REQUEST)
r 0.004308941 _14_ RTR  --- 0 AODV 48 [0 ffffffff d 800] ------- [13:255 -1:255 29 0] [0x2 2 1 [3 0] [14 4]] (REQUEST)
r 0.004309005 _12_ RTR  --- 0 AODV 48 [0 ffffffff d 800] ------- [13:255 -1:255 29 0] [0x2 2 1 [3 0] [14 4]] (REQUEST)
s 0.004319704 _13_ RTR  --- 0 AODV 48 [0 ffffffff b 800] ------- [13:255 -1:255 29 0] [0x2 2 1 [7 0] [11 4]] (REQUEST)
s 0.004513246 _13_ MAC  --- 0 AODV 106 [0 ffffffff d 800] ------- [13:255 -1:255 29 0] [0x2 2 1 [7 0] [11 4]] (REQUEST)
r 0.005361635 _11_ MAC  --- 0 AODV 48 [0 ffffffff d 800] ------- [13:255 -1:255 29 0] [0x2 2 1 [7 0] [11 4]] (REQUEST)
r 0.005361798 _15_ MAC  --- 0 AODV 48 [0 ffffffff d 800] ------- [13:255 -1:255 29 0] [0x2 2 1 [7 0] [11 4]] (REQUEST)
r 0.005361941 _14_ MAC  --- 0 AODV 48 [0 ffffffff d 800] ------- [13:255 -1:255 29 0] [0x2 2 1 [7 0] [11 4]] (REQUEST)
r 0.005362005 _12_ MAC  --- 0 AODV 48 [0 ffffffff d 800] ------- [13:255 -1:255 29 0] [0x2 2 1 [7 0] [11 4]] (REQUEST)
r 0.005386635 _11_ RTR  --- 0 AODV 48 [0 ffffffff d 800] ------- [13:255 -1:255 29 0] [0x2 2 1 [7 0] [11 4]] (REQUEST)
r 0.005386798 _15_ RTR  --- 0 AODV 48 [0 ffffffff d 800] ------- [13:255 -1:255 29 0] [0x2 2 1 [7 0] [11 4]] (REQUEST)
r 0.005386941 _14_ RTR  --- 0 AODV 48 [0 ffffffff d 800] ------- [13:255 -1:255 29 0] [0x2 2 1 [7 0] [11 4]] (REQUEST)
r 0.005387005 _12_ RTR  --- 0 AODV 48 [0 ffffffff d 800] ------- [13:255 -1:255 29 0] [0x2 2 1 [7 0] [11 4]] (REQUEST)
s 0.006016156 _18_ MAC  --- 0 AODV 106 [0 ffffffff 12 800] ------- [18:255 -1:255 29 0] [0x2 2 1 [7 0] [11 4]] (REQUEST)
s 0.006056293 _10_ MAC  --- 0 AODV 106 [0 ffffffff a 800] ------- [10:255 -1:255 30 0] [0x2 1 1 [7 0] [10 4]] (REQUEST)
r 0.006864519 _19_ MAC  --- 0 AODV 48 [0 ffffffff 12 800] ------- [18:255 -1:255 29 0] [0x2 2 1 [7 0] [11 4]] (REQUEST)
r 0.006864740 _11_ MAC  --- 0 AODV 48 [0 ffffffff 12 800] ------- [18:255 -1:255 29 0] [0x2 2 1 [7 0] [11 4]] (REQUEST)
r 0.006864833 _17_ MAC  --- 0 AODV 48 [0 ffffffff 12 800] ------- [18:255 -1:255 29 0] [0x2 2 1 [7 0] [11 4]] (REQUEST)
r 0.006889519 _19_ RTR  --- 0 AODV 48 [0 ffffffff 12 800] ------- [18:255 -1:255 29 0] [0x2 2 1 [7 0] [11 4]] (REQUEST)
r 0.006889740 _11_ RTR  --- 0 AODV 48 [0 ffffffff 12 800] ------- [18:255 -1:255 29 0] [0x2 2 1 [7 0] [11 4]] (REQUEST)
r 0.006889833 _17_ RTR  --- 0 AODV 48 [0 ffffffff 12 800] ------- [18:255 -1:255 29 0] [0x2 2 1 [7 0] [11 4]] (REQUEST)
D 0.006904787 _15_ MAC  COL 0 AODV 106 [0 ffffffff a 800] ------- [10:255 -1:255 30 0] [0x2 1 1 [7 0] [10 4]] (REQUEST)
D 0.006904994 _12_ MAC  COL 0 AODV 106 [0 ffffffff a 800] ------- [10:255 -1:255 30 0] [0x2 1 1 [7 0] [10 4]] (REQUEST)
D 0.006905021 _14_ MAC  COL 0 AODV 106 [0 ffffffff a 800] ------- [10:255 -1:255 30 0] [0x2 1 1 [7 0] [10 4]] (REQUEST)
s 0.007337380 _10_ RTR  --- 0 AODV 48 [0 ffffffff e 800] ------- [10:255 -1:255 29 0] [0x2 2 1 [3 0] [14 4]] (REQUEST)
s 0.007692380 _10_ MAC  --- 0 AODV 106 [0 ffffffff a 800] ------- [10:255 -1:255 29 0] [0x2 2 1 [3 0] [14 4]] (REQUEST)
s 0.007799054 _15_ RTR  --- 0 AODV 48 [0 ffffffff d 800] ------- [15:255 -1:255 28 0] [0x2 3 1 [7 0] [11 4]] (REQUEST)
s 0.008000000 _5_ AGT  --- 9 cbr 1000 [0 0 0 0] ------- [5:0 5:1 32 0] [1] 0 0
r 0.008000000 _5_ AGT  --- 9 cbr 1000 [0 0 0 0] ------- [5:0 5:1 32 0] [1] 0 0
s 0.008000000 _6_ AGT  --- 10 cbr 1000 [0 0 0 0] ------- [6:0 6:1 32 0] [1] 0 0
r 0.008000000 _6_ AGT  --- 10 cbr 1000 [0 0 0 0] ------- [6:0 6:1 32 0] [1] 0 0
s 0.008000000 _4_ AGT  --- 11 cbr 1000 [0 0 0 0] ------- [4:0 0:0 32 0] [1] 0 0
r 0.008000000 _4_ RTR  --- 11 cbr 1000 [0 0 0 0] ------- [4:0 0:0 32 0] [1] 0 0
s 0.008000000 _17_ AGT  --- 12 cbr 1000 [0 0 0 0] ------- [17:0 1:0 32 0] [1] 0 0
r 0.008000000 _17_ RTR  --- 12 cbr 1000 [0 0 0 0] ------- [17:0 1:0 32 0] [1] 0 0
s 0.008000000 _8_ AGT  --- 13 cbr 1000 [0 0 0 0] ------- [8:0 6:2 32 0] [1] 0 0
r 0.008000000 _8_ RTR  --- 13 cbr 1000 [0 0 0 0] ------- [8:0 6:2 32 0] [1] 0 0
s 0.008000000 _10_ AGT  --- 14 cbr 1000 [0 0 0 0] ------- [10:0 7:0 32 0] [1] 0 0
r 0.008000000 _10_ RTR  --- 14 cbr 1000 [0 0 0 0] ------- [10:0 7:0 32 0] [1] 0 0
s 0.008000000 _18_ AGT  --- 15 cbr 1000 [0 0 0 0] ------- [18:0 18:1 32 0] [1] 0 0
r 0.008000000 _18_ AGT  --- 15 cbr 1000 [0 0 0 0] ------- [18:0 18:1 32 0] [1] 0 0
s 0.008000000 _11_ AGT  --- 16 cbr 1000 [0 0 0 0] ------- [11:0 7:1 32 0] [1] 0 0
r 0.008000000 _11_ RTR  --- 16 cbr 1000 [0 0 0 0] ------- [11:0 7:1 32 0] [1] 0 0
s 0.008000000 _14_ AGT  --- 17 cbr 1000 [0 0 0 0] ------- [14:0 3:0 32 0] [1] 0 0
r 0.008000000 _14_ RTR  --- 17 cbr 1000 [0 0 0 0] ------- [14:0 3:0 32 0] [1] 0 0
r 0.008540875 _15_ MAC  --- 0 AODV 48 [0 ffffffff a 800] ------- [10:255 -1:255 29 0] [0x2 2 1 [3 0] [14 4]] (REQUEST)
r 0.008541081 _12_ MAC  --- 0 AODV 48 [0 ffffffff a 800] ------- [10:255 -1:255 29 0] [0x2 2 1 [3 0] [14 4]] (REQUEST)
r 0.008541109 _14_ MAC  --- 0 AODV 48 [0 ffffffff a 800] ------- [10:255 -1:255 29 0] [0x2 2 1 [3 0] [14 4]] (REQUEST)
r 0.008565875 _15_ RTR  --- 0 AODV 48 [0 ffffffff a 800] ------- [10:255 -1:255 29 0] [0x2 2 1 [3 0] [14 4]] (REQUEST)
r 0.008566081 _12_ RTR  --- 0 AODV 48 [0 ffffffff a 800] ------- [10:255 -1:255 29 0] [0x2 2 1 [3 0] [14 4]] (REQUEST)
r 0.008566109 _14_ RTR  --- 0 AODV 48 [0 ffffffff a 800] ------- [10:255 -1:255 29 0] [0x2 2 1 [3 0] [14 4]] (REQUEST)
s 0.008790875 _15_ MAC  --- 0 AODV 106 [0 ffffffff f 800] ------- [15:255 -1:255 28 0] [0x2 3 1 [7 0] [11 4]] (REQUEST)
s 0.009113246 _15_ RTR  --- 0 AODV 48 [0 ffffffff e 800] ------- [15:255 -1:255 29 0] [0x2 2 1 [3 0] [14 4]] (REQUEST)
s 0.009351932 _16_ RTR  --- 0 AODV 48 [0 ffffffff 11 800] ------- [16:255 -1:255 29 0] [0x2 2 1 [1 0] [17 4]] (REQUEST)
r 0.009639360 _14_ MAC  --- 0 AODV 48 [0 ffffffff f 800] ------- [15:255 -1:255 28 0] [0x2 3 1 [7 0] [11 4]] (REQUEST)
r 0.009639369 _10_ MAC  --- 0 AODV 48 [0 ffffffff f 800] ------- [15:255 -1:255 28 0] [0x2 3 1 [7 0] [11 4]] (REQUEST)
r 0.009639382 _12_ MAC  --- 0 AODV 48 [0 ffffffff f 800] ------- [15:255 -1:255 28 0] [0x2 3 1 [7 0] [11 4]] (REQUEST)
r 0.009639427 _13_ MAC  --- 0 AODV 48 [0 ffffffff f 800] ------- [15:255 -1:255 28 0] [0x2 3 1 [7 0] [11 4]] (REQUEST)
r 0.009664360 _14_ RTR  --- 0 AODV 48 [0 ffffffff f 800] ------- [15:255 -1:255 28 0] [0x2 3 1 [7 0] [11 4]] (REQUEST)
r 0.009664369 _10_ RTR  --- 0 AODV 48 [0 ffffffff f 800] ------- [15:255 -1:255 28 0] [0x2 3 1 [7 0] [11 4]] (REQUEST)
r 0.009664382 _12_ RTR  --- 0 AODV 48 [0 ffffffff f 800] ------- [15:255 -1:255 28 0] [0x2 3 1 [7 0] [11 4]] (REQUEST)
r 0.009664427 _13_ RTR  --- 0 AODV 48 [0 ffffffff f 800] ------- [15:255 -1:255 28 0] [0x2 3 1 [7 0] [11 4]] (REQUEST)
s 0.009908875 _15_ MAC  --- 0 AODV 106 [0 ffffffff f 800] ------- [15:255 -1:255 29 0] [0x2 2 1 [3 0] [14 4]] (REQUEST)
s 0.010642271 _19_ RTR  --- 0 AODV 48 [0 ffffffff b 800] ------- [19:255 -1:255 29 0] [0x2 2 1 [7 0] [11 4]] (REQUEST)
r 0.010757360 _14_ MAC  --- 0 AODV 48 [0 ffffffff f 800] ------- [15:255 -1:255 29 0] [0x2 2 1 [3 0] [14 4]] (REQUEST)
r 0.010757369 _10_ MAC  --- 0 AODV 48 [0 ffffffff f 800] ------- [15:255 -1:255 29 0] [0x2 2 1 [3 0] [14 4]] (REQUEST)
r 0.010757382 _12_ MAC  --- 0 AODV 48 [0 ffffffff f 800] ------- [15:255 -1:255 29 0] [0x2 2 1 [3 0] [14 4]] (REQUEST)
r 0.010757427 _13_ MAC  --- 0 AODV 48 [0 ffffffff f 800] ------- [15:255 -1:255 29 0] [0x2 2 1 [3 0] [14 4]] (REQUEST)
r 0.010782360 _14_ RTR  --- 0 AODV 48 [0 ffffffff f 800] ------- [15:255 -1:255 29 0] [0x2 2 1 [3 0] [14 4]] (REQUEST)
r 0.010782369 _10_ RTR  --- 0 AODV 48 [0 ffffffff f 800] ------- [15:255 -1:255 29 0] [0x2 2 1 [3 0] [14 4]] (REQUEST)
r 0.010782382 _12_ RTR  --- 0 AODV 48 [0 ffffffff f 800] ------- [15:255 -1:255 29 0] [0x2 2 1 [3 0] [14 4]] (REQUEST)
r 0.010782427 _13_ RTR  --- 0 AODV 48 [0 ffffffff f 800] ------- [15:255 -1:255 29 0] [0x2 2 1 [3 0] [14 4]] (REQUEST)
s 0.011692680 _16_ MAC  --- 0 AODV 106 [0 ffffffff 10 800] ------- [16:255 -1:255 29 0] [0x2 2 1 [1 0] [17 4]] (REQUEST)
s 0.012160495 _12_ RTR  --- 0 AODV 48 [0 ffffffff d 800] ------- [12:255 -1:255 28 0] [0x2 3 1 [7 0] [11 4]] (REQUEST)
r 0.012541182 _3_ MAC  --- 0 AODV 48 [0 ffffffff 10 800] ------- [16:255 -1:255 29 0] [0x2 2 1 [1 0] [17 4]] (REQUEST)
r 0.012541353 _19_ MAC  --- 0 AODV 48 [0 ffffffff 10 800] ------- [16:255 -1:255 29 0] [0x2 2 1 [1 0] [17 4]] (REQUEST)
r 0.012541376 _17_ MAC  --- 0 AODV 48 [0 ffffffff 10 800] ------- [16:255 -1:255 29 0] [0x2 2 1 [1 0] [17 4]] (REQUEST)
r 0.012541435 _2_ MAC  --- 0 AODV 48 [0 ffffffff 10 800] ------- [16:255 -1:255 29 0] [0x2 2 1 [1 0] [17 4]] (REQUEST)
r 0.012541436 _1_ MAC  --- 0 AODV 48 [0 ffffffff 10 800] ------- [16:255 -1:255 29 0] [0x2 2 1 [1 0] [17 4]] (REQUEST)
r 0.012566182 _3_ RTR  --- 0 AODV 48 [0 ffffffff 10 800] ------- [16:255 -1:255 29 0] [0x2 2 1 [1 0] [17 4]] (REQUEST)
r 0.012566353 _19_ RTR  --- 0 AODV 48 [0 ffffffff 10 800] ------- [16:255 -1:255 29 0] [0x2 2 1 [1 0] [17 4]] (REQUEST)
r 0.012566376 _17_ RTR  --- 0 AODV 48 [0 ffffffff 10 800] ------- [16:255 -1:255 29 0] [0x2 2 1 [1 0] [17 4]] (REQUEST)
r 0.012566435 _2_ RTR  --- 0 AODV 48 [0 ffffffff 10 800] ------- [16:255 -1:255 29 0] [0x2 2 1 [1 0] [17 4]] (REQUEST)
r 0.012566436 _1_ RTR  --- 0 AODV 48 [0 ffffffff 10 800] ------- [16:255 -1:255 29 0] [0x2 2 1 [1 0] [17 4]] (REQUEST)
s 0.012566436 _1_ RTR  --- 0 AODV 44 [0 0 0 0] ------- [1:255 17:255 30 16] [0x4 1 [1 4] 10.000000] (REPLY)
s 0.012651353 _19_ MAC  --- 0 AODV 106 [0 ffffffff 13 800] ------- [19:255 -1:255 29 0] [0x2 2 1 [7 0] [11 4]] (REQUEST)
s 0.012707257 _12_ RTR  --- 0 AODV 48 [0 ffffffff d 800] ------- [12:255 -1:255 28 0] [0x2 3 1 [3 0] [14 4]] (REQUEST)
s 0.012929308 _11_ RTR  --- 0 AODV 48 [0 ffffffff d 800] ------- [11:255 -1:255 28 0] [0x2 3 1 [3 0] [14 4]] (REQUEST)
r 0.013499717 _18_ MAC  --- 0 AODV 48 [0 ffffffff 13 800] ------- [19:255 -1:255 29 0] [0x2 2 1 [7 0] [11 4]] (REQUEST)
r 0.013500004 _2_ MAC  --- 0 AODV 48 [0 ffffffff 13 800] ------- [19:255 -1:255 29 0] [0x2 2 1 [7 0] [11 4]] (REQUEST)
r 0.013500026 _16_ MAC  --- 0 AODV 48 [0 ffffffff 13 800] ------- [19:255 -1:255 29 0] [0x2 2 1 [7 0] [11 4]] (REQUEST)
r 0.013500076 _11_ MAC  --- 0 AODV 48 [0 ffffffff 13 800] ------- [19:255 -1:255 29 0] [0x2 2 1 [7 0] [11 4]] (REQUEST)
r 0.013500090 _17_ MAC  --- 0 AODV 48 [0 ffffffff 13 800] ------- [19:255 -1:255 29 0] [0x2 2 1 [7 0] [11 4]] (REQUEST)
r 0.013524717 _18_ RTR  --- 0 AODV 48 [0 ffffffff 13 800] ------- [19:255 -1:255 29 0] [0x2 2 1 [7 0] [11 4]] (REQUEST)
r 0.013525004 _2_ RTR  --- 0 AODV 48 [0 ffffffff 13 800] ------- [19:255 -1:255 29 0] [0x2 2 1 [7 0] [11 4]] (REQUEST)
r 0.013525026 _16_ RTR  --- 0 AODV 48 [0 ffffffff 13 800] ------- [19:255 -1:255 29 0] [0x2 2 1 [7 0] [11 4]] (REQUEST)
r 0.013525076 _11_ RTR  --- 0 AODV 48 [0 ffffffff 13 800] ------- [19:255 -1:255 29 0] [0x2 2 1 [7 0] [11 4]] (REQUEST)
r 0.013525090 _17_ RTR  --- 0 AODV 48 [0 ffffffff 13 800] ------- [19:255 -1:255 29 0] [0x2 2 1 [7 0] [11 4]] (REQUEST)
s 0.013797388 _19_ RTR  --- 0 AODV 48 [0 ffffffff 10 800] ------- [19:255 -1:255 28 0] [0x2 3 1 [1 0] [17 4]] (REQUEST)
s 0.013898006 _14_ RTR  --- 0 AODV 48 [0 ffffffff d 800] ------- [14:255 -1:255 28 0] [0x2 3 1 [7 0] [11 4]] (REQUEST)
s 0.014030076 _11_ MAC  --- 0 AODV 106 [0 ffffffff b 800] ------- [11:255 -1:255 28 0] [0x2 3 1 [3 0] [14 4]] (REQUEST)
s 0.014174781 _1_ MAC  --- 0 ARP 86 [0 ffffffff 1 806] ------- [REQUEST 1/1 0/16]
D 0.014175506 _3_ MAC  COL 0 ARP 86 [0 ffffffff 1 806] ------- [REQUEST 1/1 0/16]
D 0.014175537 _16_ MAC  COL 0 ARP 86 [0 ffffffff 1 806] ------- [REQUEST 1/1 0/16]
r 0.014863504 _7_ MAC  --- 0 ARP 28 [0 ffffffff 1 806] ------- [REQUEST 1/1 0/16]
r 0.014878465 _13_ MAC  --- 0 AODV 48 [0 ffffffff b 800] ------- [11:255 -1:255 28 0] [0x2 3 1 [3 0] [14 4]] (REQUEST)
r 0.014878661 _18_ MAC  --- 0 AODV 48 [0 ffffffff b 800] ------- [11:255 -1:255 28 0] [0x2 3 1 [3 0] [14 4]] (REQUEST)
r 0.014878799 _19_ MAC  --- 0 AODV 48 [0 ffffffff b 800] ------- [11:255 -1:255 28 0] [0x2 3 1 [3 0] [14 4]] (REQUEST)
r 0.014903465 _13_ RTR  --- 0 AODV 48 [0 ffffffff b 800] ------- [11:255 -1:255 28 0] [0x2 3 1 [3 0] [14 4]] (REQUEST)
r 0.014903661 _18_ RTR  --- 0 AODV 48 [0 ffffffff b 800] ------- [11:255 -1:255 28 0] [0x2 3 1 [3 0] [14 4]] (REQUEST)
r 0.014903799 _19_ RTR  --- 0 AODV 48 [0 ffffffff b 800] ------- [11:255 -1:255 28 0] [0x2 3 1 [3 0] [14 4]] (REQUEST)
s 0.015298209 _19_ MAC  --- 0 AODV 106 [0 ffffffff 13 800] ------- [19:255 -1:255 28 0] [0x2 3 1 [1 0] [17 4]] (REQUEST)
s 0.015922809 _3_ RTR  --- 0 AODV 48 [0 ffffffff 10 800] ------- [3:255 -1:255 28 0] [0x2 3 1 [1 0] [17 4]] (REQUEST)
s 0.015939288 _17_ RTR  --- 0 AODV 48 [0 ffffffff 12 800] ------- [17:255 -1:255 28 0] [0x2 3 1 [7 0] [11 4]] (REQUEST)
s 0.016000000 _5_ AGT  --- 18 cbr 1000 [0 0 0 0] ------- [5:0 5:1 32 0] [2] 0 0
r 0.016000000 _5_ AGT  --- 18 cbr 1000 [0 0 0 0] ------- [5:0 5:1 32 0] [2] 0 0
s 0.016000000 _6_ AGT  --- 19 cbr 1000 [0 0 0 0] ------- [6:0 6:1 32 0] [2] 0 0
r 0.016000000 _6_ AGT  --- 19 cbr 1000 [0 0 0 0] ------- [6:0 6:1 32 0] [2] 0 0
s 0.016000000 _4_ AGT  --- 20 cbr 1000 [0 0 0 0] ------- [4:0 0:0 32 0] [2] 0 0
r 0.016000000 _4_ RTR  --- 20 cbr 1000 [0 0 0 0] ------- [4:0 0:0 32 0] [2] 0 0
s 0.016000000 _17_ AGT  --- 21 cbr 1000 [0 0 0 0] ------- [17:0 1:0 32 0] [2] 0 0
r 0.016000000 _17_ RTR  --- 21 cbr 1000 [0 0 0 0] ------- [17:0 1:0 32 0] [2] 0 0
s 0.016000000 _8_ AGT  --- 22 cbr 1000 [0 0 0 0] ------- [8:0 6:2 32 0] [2] 0 0
r 0.016000000 _8_ RTR  --- 22 cbr 1000 [0 0 0 0] ------- [8:0 6:2 32 0] [2] 0 0
s 0.016000000 _10_ AGT  --- 23 cbr 1000 [0 0 0 0] ------- [10:0 7:0 32 0] [2] 0 0
r 0.016000000 _10_ RTR  --- 23 cbr 1000 [0 0 0 0] ------- [10:0 7:0 32 0] [2] 0 0
s 0.016000000 _18_ AGT  --- 24 cbr 1000 [0 0 0 0] ------- [18:0 18:1 32 0] [2] 0 0
r 0.016000000 _18_ AGT  --- 24 cbr 1000 [0 0 0 0] ------- [18:0 18:1 32 0] [2] 0 0
s 0.016000000 _11_ AGT  --- 25 cbr 1000 [0 0 0 0] ------- [11:0 7:1 32 0] [2] 0 0
r 0.016000000 _11_ RTR  --- 25 cbr 1000 [0 0 0 0] ------- [11:0 7:1 32 0] [2] 0 0
s 0.016000000 _14_ AGT  --- 26 cbr 1000 [0 0 0 0] ------- [14:0 3:0 32 0] [2] 0 0
r 0.016000000 _14_ RTR  --- 26 cbr 1000 [0 0 0 0] ------- [14:0 3:0 32 0] [2] 0 0
s 0.016143268 _16_ RTR  --- 0 AODV 48 [0 ffffffff 13 800] ------- [16:255 -1:255 28 0] [0x2 3 1 [7 0] [11 4]] (REQUEST)
r 0.016146573 _18_ MAC  --- 0 AODV 48 [0 ffffffff 13 800] ------- [19:255 -1:255 28 0] [0x2 3 1 [1 0] [17 4]] (REQUEST)
r 0.016146861 _2_ MAC  --- 0 AODV 48 [0 ffffffff 13 800] ------- [19:255 -1:255 28 0] [0x2 3 1 [1 0] [17 4]] (REQUEST)
r 0.016146883 _16_ MAC  --- 0 AODV 48 [0 ffffffff 13 800] ------- [19:255 -1:255 28 0] [0x2 3 1 [1 0] [17 4]] (REQUEST)
r 0.016146932 _11_ MAC  --- 0 AODV 48 [0 ffffffff 13 800] ------- [19:255 -1:255 28 0] [0x2 3 1 [1 0] [17 4]] (REQUEST)
r 0.016146946 _17_ MAC  --- 0 AODV 48 [0 ffffffff 13 800] ------- [19:255 -1:255 28 0] [0x2 3 1 [1 0] [17 4]] (REQUEST)
r 0.016171573 _18_ RTR  --- 0 AODV 48 [0 ffffffff 13 800] ------- [19:255 -1:255 28 0] [0x2 3 1 [1 0] [17 4]] (REQUEST)
r 0.016171861 _2_ RTR  --- 0 AODV 48 [0 ffffffff 13 800] ------- [19:255 -1:255 28 0] [0x2 3 1 [1 0] [17 4]] (REQUEST)
r 0.016171883 _16_ RTR  --- 0 AODV 48 [0 ffffffff 13 800] ------- [19:255 -1:255 28 0] [0x2 3 1 [1 0] [17 4]] (REQUEST)
r 0.016171932 _11_ RTR  --- 0 AODV 48 [0 ffffffff 13 800] ------- [19:255 -1:255 28 0] [0x2 3 1 [1 0] [17 4]] (REQUEST)
r 0.016171946 _17_ RTR  --- 0 AODV 48 [0 ffffffff 13 800] ------- [19:255 -1:255 28 0] [0x2 3 1 [1 0] [17 4]] (REQUEST)
s 0.016476946 _17_ MAC  --- 0 AODV 106 [0 ffffffff 11 800] ------- [17:255 -1:255 28 0] [0x2 3 1 [7 0] [11 4]] (REQUEST)
s 0.016741800 _14_ MAC  --- 0 AODV 106 [0 ffffffff e 800] ------- [14:255 -1:255 28 0] [0x2 3 1 [7 0] [11 4]] (REQUEST)
s 0.016765803 _18_ RTR  --- 0 AODV 48 [0 ffffffff b 800] ------- [18:255 -1:255 27 0] [0x2 4 1 [3 0] [14 4]] (REQUEST)
r 0.017325623 _18_ MAC  --- 0 AODV 48 [0 ffffffff 11 800] ------- [17:255 -1:255 28 0] [0x2 3 1 [7 0] [11 4]] (REQUEST)
r 0.017325642 _16_ MAC  --- 0 AODV 48 [0 ffffffff 11 800] ------- [17:255 -1:255 28 0] [0x2 3 1 [7 0] [11 4]] (REQUEST)
r 0.017325682 _19_ MAC  --- 0 AODV 48 [0 ffffffff 11 800] ------- [17:255 -1:255 28 0] [0x2 3 1 [7 0] [11 4]] (REQUEST)
r 0.017350623 _18_ RTR  --- 0 AODV 48 [0 ffffffff 11 800] ------- [17:255 -1:255 28 0] [0x2 3 1 [7 0] [11 4]] (REQUEST)
r 0.017350642 _16_ RTR  --- 0 AODV 48 [0 ffffffff 11 800] ------- [17:255 -1:255 28 0] [0x2 3 1 [7 0] [11 4]] (REQUEST)
r 0.017350682 _19_ RTR  --- 0 AODV 48 [0 ffffffff 11 800] ------- [17:255 -1:255 28 0] [0x2 3 1 [7 0] [11 4]] (REQUEST)
r 0.017590286 _15_ MAC  --- 0 AODV 48 [0 ffffffff e 800] ------- [14:255 -1:255 28 0] [0x2 3 1 [7 0] [11 4]] (REQUEST)
D 0.017590495 _13_ MAC  COL 0 AODV 106 [0 ffffffff e 800] ------- [14:255 -1:255 28 0] [0x2 3 1 [7 0] [11 4]] (REQUEST)
r 0.017590529 _10_ MAC  --- 0 AODV 48 [0 ffffffff e 800] ------- [14:255 -1:255 28 0] [0x2 3 1 [7 0] [11 4]] (REQUEST)
r 0.017615286 _15_ RTR  --- 0 AODV 48 [0 ffffffff e 800] ------- [14:255 -1:255 28 0] [0x2 3 1 [7 0] [11 4]] (REQUEST)
r 0.017615529 _10_ RTR  --- 0 AODV 48 [0 ffffffff e 800] ------- [14:255 -1:255 28 0] [0x2 3 1 [7 0] [11 4]] (REQUEST)
s 0.017615642 _16_ MAC  --- 0 AODV 106 [0 ffffffff 10 800] ------- [16:255 -1:255 28 0] [0x2 3 1 [7 0] [11 4]] (REQUEST)
s 0.017958852 _18_ RTR  --- 0 AODV 48 [0 ffffffff 13 800] ------- [18:255 -1:255 27 0] [0x2 4 1 [1 0] [17 4]] (REQUEST)
r 0.018464144 _3_ MAC  --- 0 AODV 48 [0 ffffffff 10 800] ------- [16:255 -1:255 28 0] [0x2 3 1 [7 0] [11 4]] (REQUEST)
r 0.018464315 _19_ MAC  --- 0 AODV 48 [0 ffffffff 10 800] ------- [16:255 -1:255 28 0] [0x2 3 1 [7 0] [11 4]] (REQUEST)
r 0.018464338 _17_ MAC  --- 0 AODV 48 [0 ffffffff 10 800] ------- [16:255 -1:255 28 0] [0x2 3 1 [7 0] [11 4]] (REQUEST)
r 0.018464397 _2_ MAC  --- 0 AODV 48 [0 ffffffff 10 800] ------- [16:255 -1:255 28 0] [0x2 3 1 [7 0] [11 4]] (REQUEST)
r 0.018464398 _1_ MAC  --- 0 AODV 48 [0 ffffffff 10 800] ------- [16:255 -1:255 28 0] [0x2 3 1 [7 0] [11 4]] (REQUEST)
r 0.018489144 _3_ RTR  --- 0 AODV 48 [0 ffffffff 10 800] ------- [16:255 -1:255 28 0] [0x2 3 1 [7 0] [11 4]] (REQUEST)
r 0.018489315 _19_ RTR  --- 0 AODV 48 [0 ffffffff 10 800] ------- [16:255 -1:255 28 0] [0x2 3 1 [7 0] [11 4]] (REQUEST)
r 0.018489338 _17_ RTR  --- 0 AODV 48 [0 ffffffff 10 800] ------- [16:255 -1:255 28 0] [0x2 3 1 [7 0] [11 4]] (REQUEST)
r 0.018489397 _2_ RTR  --- 0 AODV 48 [0 ffffffff 10 800] ------- [16:255 -1:255 28 0] [0x2 3 1 [7 0] [11 4]] (REQUEST)
r 0.018489398 _1_ RTR  --- 0 AODV 48 [0 ffffffff 10 800] ------- [16:255 -1:255 28 0] [0x2 3 1 [7 0] [11 4]] (REQUEST)
s 0.018577848 _10_ RTR  --- 0 AODV 48 [0 ffffffff f 800] ------- [10:255 -1:255 27 0] [0x2 4 1 [7 0] [11 4]] (REQUEST)
s 0.018732848 _10_ MAC  --- 0 AODV 106 [0 ffffffff a 800] ------- [10:255 -1:255 27 0] [0x2 4 1 [7 0] [11 4]] (REQUEST)
s 0.018814144 _3_ MAC  --- 0 AODV 106 [0 ffffffff 3 800] ------- [3:255 -1:255 28 0] [0x2 3 1 [1 0] [17 4]] (REQUEST)
s 0.019252674 _2_ RTR  --- 0 AODV 48 [0 ffffffff 10 800] ------- [2:255 -1:255 28 0] [0x2 3 1 [1 0] [17 4]] (REQUEST)
r 0.019581342 _15_ MAC  --- 0 AODV 48 [0 ffffffff a 800] ------- [10:255 -1:255 27 0] [0x2 4 1 [7 0] [11 4]] (REQUEST)
r 0.019581549 _12_ MAC  --- 0 AODV 48 [0 ffffffff a 800] ------- [10:255 -1:255 27 0] [0x2 4 1 [7 0] [11 4]] (REQUEST)
r 0.019581576 _14_ MAC  --- 0 AODV 48 [0 ffffffff a 800] ------- [10:255 -1:255 27 0] [0x2 4 1 [7 0] [11 4]] (REQUEST)
r 0.019606342 _15_ RTR  --- 0 AODV 48 [0 ffffffff a 800] ------- [10:255 -1:255 27 0] [0x2 4 1 [7 0] [11 4]] (REQUEST)
r 0.019606549 _12_ RTR  --- 0 AODV 48 [0 ffffffff a 800] ------- [10:255 -1:255 27 0] [0x2 4 1 [7 0] [11 4]] (REQUEST)
r 0.019606576 _14_ RTR  --- 0 AODV 48 [0 ffffffff a 800] ------- [10:255 -1:255 27 0] [0x2 4 1 [7 0] [11 4]] (REQUEST)
r 0.019662646 _16_ MAC  --- 0 AODV 48 [0 ffffffff 3 800] ------- [3:255 -1:255 28 0] [0x2 3 1 [1 0] [17 4]] (REQUEST)
D 0.019662842 _2_ MAC  COL 0 AODV 106 [0 ffffffff 3 800] ------- [3:255 -1:255 28 0] [0x2 3 1 [1 0] [17 4]] (REQUEST)
r 0.019662868 _1_ MAC  --- 0 AODV 48 [0 ffffffff 3 800] ------- [3:255 -1:255 28 0] [0x2 3 1 [1 0] [17 4]] (REQUEST)
r 0.019662932 _0_ MAC  --- 0 AODV 48 [0 ffffffff 3 800] ------- [3:255 -1:255 28 0] [0x2 3 1 [1 0] [17 4]] (REQUEST)
r 0.019687646 _16_ RTR  --- 0 AODV 48 [0 ffffffff 3 800] ------- [3:255 -1:255 28 0] [0x2 3 1 [1 0] [17 4]] (REQUEST)
r 0.019687868 _1_ RTR  --- 0 AODV 48 [0 ffffffff 3 800] ------- [3:255 -1:255 28 0] [0x2 3 1 [1 0] [17 4]] (REQUEST)
r 0.019687932 _0_ RTR  --- 0 AODV 48 [0 ffffffff 3 800] ------- [3:255 -1:255 28 0] [0x2 3 1 [1 0] [17 4]] (REQUEST)
s 0.020097533 _12_ MAC  --- 0 AODV 106 [0 ffffffff c 800] ------- [12:255 -1:255 28 0] [0x2 3 1 [7 0] [11 4]] (REQUEST)
r 0.020946041 _15_ MAC  --- 0 AODV 48 [0 ffffffff c 800] ------- [12:255 -1:255 28 0] [0x2 3 1 [7 0] [11 4]] (REQUEST)
r 0.020946234 _10_ MAC  --- 0 AODV 48 [0 ffffffff c 800] ------- [12:255 -1:255 28 0] [0x2 3 1 [7 0] [11 4]] (REQUEST)
r 0.020946238 _2_ MAC  --- 0 AODV 48 [0 ffffffff c 800] ------- [12:255 -1:255 28 0] [0x2 3 1 [7 0] [11 4]] (REQUEST)
r 0.020946292 _13_ MAC  --- 0 AODV 48 [0 ffffffff c 800] ------- [12:255 -1:255 28 0] [0x2 3 1 [7 0] [11 4]] (REQUEST)
r 0.020971041 _15_ RTR  --- 0 AODV 48 [0 ffffffff c 800] ------- [12:255 -1:255 28 0] [0x2 3 1 [7 0] [11 4]] (REQUEST)
r 0.020971234 _10_ RTR  --- 0 AODV 48 [0 ffffffff c 800] ------- [12:255 -1:255 28 0] [0x2 3 1 [7 0] [11 4]] (REQUEST)
r 0.020971238 _2_ RTR  --- 0 AODV 48 [0 ffffffff c 800] ------- [12:255 -1:255 28 0] [0x2 3 1 [7 0] [11 4]] (REQUEST)
r 0.020971292 _13_ RTR  --- 0 AODV 48 [0 ffffffff c 800] ------- [12:255 -1:255 28 0] [0x2 3 1 [7 0] [11 4]] (REQUEST)
s 0.021236238 _2_ MAC  --- 0 AODV 106 [0 ffffffff 2 800] ------- [2:255 -1:255 28 0] [0x2 3 1 [1 0] [17 4]] (REQUEST)
r 0.022084889 _19_ MAC  --- 0 AODV 48 [0 ffffffff 2 800] ------- [2:255 -1:255 28 0] [0x2 3 1 [1 0] [17 4]] (REQUEST)
r 0.022084935 _3_ MAC  --- 0 AODV 48 [0 ffffffff 2 800] ------- [2:255 -1:255 28 0] [0x2 3 1 [1 0] [17 4]] (REQUEST)
r 0.022084942 _12_ MAC  --- 0 AODV 48 [0 ffffffff 2 800] ------- [2:255 -1:255 28 0] [0x2 3 1 [1 0] [17 4]] (REQUEST)
r 0.022084992 _16_ MAC  --- 0 AODV 48 [0 ffffffff 2 800] ------- [2:255 -1:255 28 0] [0x2 3 1 [1 0] [17 4]] (REQUEST)
r 0.022084999 _9_ MAC  --- 0 AODV 48 [0 ffffffff 2 800] ------- [2:255 -1:255 28 0] [0x2 3 1 [1 0] [17 4]] (REQUEST)
r 0.022109889 _19_ RTR  --- 0 AODV 48 [0 ffffffff 2 800] ------- [2:255 -1:255 28 0] [0x2 3 1 [1 0] [17 4]] (REQUEST)
r 0.022109935 _3_ RTR  --- 0 AODV 48 [0 ffffffff 2 800] ------- [2:255 -1:255 28 0] [0x2 3 1 [1 0] [17 4]] (REQUEST)