s 0.000000000 _5_ AGT  --- 0 cbr 1000 [0 0 0 0] ------- [5:0 5:1 32 0] [0] 0 0
r 0.000000000 _5_ AGT  --- 0 cbr 1000 [0 0 0 0] ------- [5:0 5:1 32 0] [0] 0 0
s 0.000000000 _6_ AGT  --- 1 cbr 1000 [0 0 0 0] ------- [6:0 6:1 32 0] [0] 0 0
r 0.000000000 _6_ AGT  --- 1 cbr 1000 [0 0 0 0] ------- [6:0 6:1 32 0] [0] 0 0
s 0.000000000 _4_ AGT  --- 2 cbr 1000 [0 0 0 0] ------- [4:0 0:0 32 0] [0] 0 0
r 0.000000000 _4_ RTR  --- 2 cbr 1000 [0 0 0 0] ------- [4:0 0:0 32 0] [0] 0 0
s 0.000000000 _17_ AGT  --- 3 cbr 1000 [0 0 0 0] ------- [17:0 1:0 32 0] [0] 0 0
r 0.000000000 _17_ RTR  --- 3 cbr 1000 [0 0 0 0] ------- [17:0 1:0 32 0] [0] 0 0
s 0.000000000 _8_ AGT  --- 4 cbr 1000 [0 0 0 0] ------- [8:0 6:2 32 0] [0] 0 0
r 0.000000000 _8_ RTR  --- 4 cbr 1000 [0 0 0 0] ------- [8:0 6:2 32 0] [0] 0 0
s 0.000000000 _10_ AGT  --- 5 cbr 1000 [0 0 0 0] ------- [10:0 7:0 32 0] [0] 0 0
r 0.000000000 _10_ RTR  --- 5 cbr 1000 [0 0 0 0] ------- [10:0 7:0 32 0] [0] 0 0
s 0.000000000 _18_ AGT  --- 6 cbr 1000 [0 0 0 0] ------- [18:0 18:1 32 0] [0] 0 0
r 0.000000000 _18_ AGT  --- 6 cbr 1000 [0 0 0 0] ------- [18:0 18:1 32 0] [0] 0 0
s 0.000000000 _11_ AGT  --- 7 cbr 1000 [0 0 0 0] ------- [11:0 7:1 32 0] [0] 0 0
r 0.000000000 _11_ RTR  --- 7 cbr 1000 [0 0 0 0] ------- [11:0 7:1 32 0] [0] 0 0
s 0.000000000 _14_ AGT  --- 8 cbr 1000 [0 0 0 0] ------- [14:0 3:0 32 0] [0] 0 0
r 0.000000000 _14_ RTR  --- 8 cbr 1000 [0 0 0 0] ------- [14:0 3:0 32 0] [0] 0 0
s 0.000000000 _19_ AGT  --- 9 cbr 1000 [0 0 0 0] ------- [19:0 0:1 32 0] [0] 0 0
r 0.000000000 _19_ RTR  --- 9 cbr 1000 [0 0 0 0] ------- [19:0 0:1 32 0] [0] 0 0
s 0.000000000 _4_ RTR  --- 0 AODV 48 [0 0 0 0] ------- [4:255 -1:255 30 0] [0x2 1 1 [0 0] [4 4]] (REQUEST)
s 0.000000000 _17_ RTR  --- 0 AODV 48 [0 0 0 0] ------- [17:255 -1:255 30 0] [0x2 1 1 [1 0] [17 4]] (REQUEST)
s 0.000000000 _8_ RTR  --- 0 AODV 48 [0 0 0 0] ------- [8:255 -1:255 30 0] [0x2 1 1 [6 0] [8 4]] (REQUEST)
s 0.000000000 _10_ RTR  --- 0 AODV 48 [0 0 0 0] ------- [10:255 -1:255 30 0] [0x2 1 1 [7 0] [10 4]] (REQUEST)
s 0.000000000 _11_ RTR  --- 0 AODV 48 [0 0 0 0] ------- [11:255 -1:255 30 0] [0x2 1 1 [7 0] [11 4]] (REQUEST)
s 0.000000000 _14_ RTR  --- 0 AODV 48 [0 0 0 0] ------- [14:255 -1:255 30 0] [0x2 1 1 [3 0] [14 4]] (REQUEST)
s 0.000000000 _19_ RTR  --- 0 AODV 48 [0 0 0 0] ------- [19:255 -1:255 30 0] [0x2 1 1 [0 0] [19 4]] (REQUEST)
s 0.000075000 _14_ MAC  --- 0 AODV 106 [0 ffffffff e 800] ------- [14:255 -1:255 30 0] [0x2 1 1 [3 0] [14 4]] (REQUEST)
s 0.000115000 _17_ MAC  --- 0 AODV 106 [0 ffffffff 11 800] ------- [17:255 -1:255 30 0] [0x2 1 1 [1 0] [17 4]] (REQUEST)
s 0.000535000 _4_ MAC  --- 0 AODV 106 [0 ffffffff 4 800] ------- [4:255 -1:255 30 0] [0x2 1 1 [0 0] [4 4]] (REQUEST)
s 0.000635000 _8_ MAC  --- 0 AODV 106 [0 ffffffff 8 800] ------- [8:255 -1:255 30 0] [0x2 1 1 [6 0] [8 4]] (REQUEST)
r 0.000923486 _15_ MAC  --- 0 AODV 48 [0 ffffffff e 800] ------- [14:255 -1:255 30 0] [0x2 1 1 [3 0] [14 4]] (REQUEST)
r 0.000923695 _13_ MAC  --- 0 AODV 48 [0 ffffffff e 800] ------- [14:255 -1:255 30 0] [0x2 1 1 [3 0] [14 4]] (REQUEST)
r 0.000923729 _10_ MAC  --- 0 AODV 48 [0 ffffffff e 800] ------- [14:255 -1:255 30 0] [0x2 1 1 [3 0] [14 4]] (REQUEST)
r 0.000948486 _15_ RTR  --- 0 AODV 48 [0 ffffffff e 800] ------- [14:255 -1:255 30 0] [0x2 1 1 [3 0] [14 4]] (REQUEST)
r 0.000948695 _13_ RTR  --- 0 AODV 48 [0 ffffffff e 800] ------- [14:255 -1:255 30 0] [0x2 1 1 [3 0] [14 4]] (REQUEST)
r 0.000948729 _10_ RTR  --- 0 AODV 48 [0 ffffffff e 800] ------- [14:255 -1:255 30 0] [0x2 1 1 [3 0] [14 4]] (REQUEST)
D 0.000963678 _18_ MAC  COL 0 AODV 106 [0 ffffffff 11 800] ------- [17:255 -1:255 30 0] [0x2 1 1 [1 0] [17 4]] (REQUEST)
r 0.000963696 _16_ MAC  --- 0 AODV 48 [0 ffffffff 11 800] ------- [17:255 -1:255 30 0] [0x2 1 1 [1 0] [17 4]] (REQUEST)
D 0.000963736 _19_ MAC  COL 0 AODV 106 [0 ffffffff 11 800] ------- [17:255 -1:255 30 0] [0x2 1 1 [1 0] [17 4]] (REQUEST)
r 0.000988696 _16_ RTR  --- 0 AODV 48 [0 ffffffff 11 800] ------- [17:255 -1:255 30 0] [0x2 1 1 [1 0] [17 4]] (REQUEST)
r 0.001383603 _9_ MAC  --- 0 AODV 48 [0 ffffffff 4 800] ------- [4:255 -1:255 30 0] [0x2 1 1 [0 0] [4 4]] (REQUEST)
r 0.001408603 _9_ RTR  --- 0 AODV 48 [0 ffffffff 4 800] ------- [4:255 -1:255 30 0] [0x2 1 1 [0 0] [4 4]] (REQUEST)
r 0.001483479 _5_ MAC  --- 0 AODV 48 [0 ffffffff 8 800] ------- [8:255 -1:255 30 0] [0x2 1 1 [6 0] [8 4]] (REQUEST)
D 0.001483696 _7_ MAC  COL 0 AODV 106 [0 ffffffff 8 800] ------- [8:255 -1:255 30 0] [0x2 1 1 [6 0] [8 4]] (REQUEST)
r 0.001508479 _5_ RTR  --- 0 AODV 48 [0 ffffffff 8 800] ------- [8:255 -1:255 30 0] [0x2 1 1 [6 0] [8 4]] (REQUEST)
s 0.001537736 _19_ MAC  --- 0 AODV 106 [0 ffffffff 13 800] ------- [19:255 -1:255 30 0] [0x2 1 1 [0 0] [19 4]] (REQUEST)
r 0.002386100 _18_ MAC  --- 0 AODV 48 [0 ffffffff 13 800] ------- [19:255 -1:255 30 0] [0x2 1 1 [0 0] [19 4]] (REQUEST)
r 0.002386388 _2_ MAC  --- 0 AODV 48 [0 ffffffff 13 800] ------- [19:255 -1:255 30 0] [0x2 1 1 [0 0] [19 4]] (REQUEST)
r 0.002386410 _16_ MAC  --- 0 AODV 48 [0 ffffffff 13 800] ------- [19:255 -1:255 30 0] [0x2 1 1 [0 0] [19 4]] (REQUEST)
r 0.002386459 _11_ MAC  --- 0 AODV 48 [0 ffffffff 13 800] ------- [19:255 -1:255 30 0] [0x2 1 1 [0 0] [19 4]] (REQUEST)
r 0.002386473 _17_ MAC  --- 0 AODV 48 [0 ffffffff 13 800] ------- [19:255 -1:255 30 0] [0x2 1 1 [0 0] [19 4]] (REQUEST)
r 0.002411100 _18_ RTR  --- 0 AODV 48 [0 ffffffff 13 800] ------- [19:255 -1:255 30 0] [0x2 1 1 [0 0] [19 4]] (REQUEST)
r 0.002411388 _2_ RTR  --- 0 AODV 48 [0 ffffffff 13 800] ------- [19:255 -1:255 30 0] [0x2 1 1 [0 0] [19 4]] (REQUEST)
r 0.002411410 _16_ RTR  --- 0 AODV 48 [0 ffffffff 13 800] ------- [19:255 -1:255 30 0] [0x2 1 1 [0 0] [19 4]] (REQUEST)
r 0.002411459 _11_ RTR  --- 0 AODV 48 [0 ffffffff 13 800] ------- [19:255 -1:255 30 0] [0x2 1 1 [0 0] [19 4]] (REQUEST)
r 0.002411473 _17_ RTR  --- 0 AODV 48 [0 ffffffff 13 800] ------- [19:255 -1:255 30 0] [0x2 1 1 [0 0] [19 4]] (REQUEST)
s 0.002596459 _11_ MAC  --- 0 AODV 106 [0 ffffffff b 800] ------- [11:255 -1:255 30 0] [0x2 1 1 [7 0] [11 4]] (REQUEST)
s 0.002630150 _16_ RTR  --- 0 AODV 48 [0 ffffffff 11 800] ------- [16:255 -1:255 29 0] [0x2 2 1 [1 0] [17 4]] (REQUEST)
s 0.003294503 _15_ RTR  --- 0 AODV 48 [0 ffffffff e 800] ------- [15:255 -1:255 29 0] [0x2 2 1 [3 0] [14 4]] (REQUEST)
s 0.003352776 _2_ RTR  --- 0 AODV 48 [0 ffffffff 13 800] ------- [2:255 -1:255 29 0] [0x2 2 1 [0 0] [19 4]] (REQUEST)
r 0.003444848 _13_ MAC  --- 0 AODV 48 [0 ffffffff b 800] ------- [11:255 -1:255 30 0] [0x2 1 1 [7 0] [11 4]] (REQUEST)
r 0.003445044 _18_ MAC  --- 0 AODV 48 [0 ffffffff b 800] ------- [11:255 -1:255 30 0] [0x2 1 1 [7 0] [11 4]] (REQUEST)
r 0.003445182 _19_ MAC  --- 0 AODV 48 [0 ffffffff b 800] ------- [11:255 -1:255 30 0] [0x2 1 1 [7 0] [11 4]] (REQUEST)
r 0.003469848 _13_ RTR  --- 0 AODV 48 [0 ffffffff b 800] ------- [11:255 -1:255 30 0] [0x2 1 1 [7 0] [11 4]] (REQUEST)
r 0.003470044 _18_ RTR  --- 0 AODV 48 [0 ffffffff b 800] ------- [11:255 -1:255 30 0] [0x2 1 1 [7 0] [11 4]] (REQUEST)
r 0.003470182 _19_ RTR  --- 0 AODV 48 [0 ffffffff b 800] ------- [11:255 -1:255 30 0] [0x2 1 1 [7 0] [11 4]] (REQUEST)
s 0.003879855 _16_ MAC  --- 0 AODV 106 [0 ffffffff 10 800] ------- [16:255 -1:255 29 0] [0x2 2 1 [1 0] [17 4]] (REQUEST)
s 0.004039519 _10_ RTR  --- 0 AODV 48 [0 ffffffff e 800] ------- [10:255 -1:255 29 0] [0x2 2 1 [3 0] [14 4]] (REQUEST)
s 0.004159153 _18_ RTR  --- 0 AODV 48 [0 ffffffff 13 800] ------- [18:255 -1:255 29 0] [0x2 2 1 [0 0] [19 4]] (REQUEST)
s 0.004159886 _10_ MAC  --- 0 AODV 106 [0 ffffffff a 800] ------- [10:255 -1:255 30 0] [0x2 1 1 [7 0] [10 4]] (REQUEST)
r 0.004728357 _3_ MAC  --- 0 AODV 48 [0 ffffffff 10 800] ------- [16:255 -1:255 29 0] [0x2 2 1 [1 0] [17 4]] (REQUEST)
r 0.004728529 _19_ MAC  --- 0 AODV 48 [0 ffffffff 10 800] ------- [16:255 -1:255 29 0] [0x2 2 1 [1 0] [17 4]] (REQUEST)
r 0.004728552 _17_ MAC  --- 0 AODV 48 [0 ffffffff 10 800] ------- [16:255 -1:255 29 0] [0x2 2 1 [1 0] [17 4]] (REQUEST)
r 0.004728610 _2_ MAC  --- 0 AODV 48 [0 ffffffff 10 800] ------- [16:255 -1:255 29 0] [0x2 2 1 [1 0] [17 4]] (REQUEST)
r 0.004728611 _1_ MAC  --- 0 AODV 48 [0 ffffffff 10 800] ------- [16:255 -1:255 29 0] [0x2 2 1 [1 0] [17 4]] (REQUEST)
r 0.004753357 _3_ RTR  --- 0 AODV 48 [0 ffffffff 10 800] ------- [16:255 -1:255 29 0] [0x2 2 1 [1 0] [17 4]] (REQUEST)
r 0.004753529 _19_ RTR  --- 0 AODV 48 [0 ffffffff 10 800] ------- [16:255 -1:255 29 0] [0x2 2 1 [1 0] [17 4]] (REQUEST)
r 0.004753552 _17_ RTR  --- 0 AODV 48 [0 ffffffff 10 800] ------- [16:255 -1:255 29 0] [0x2 2 1 [1 0] [17 4]] (REQUEST)
r 0.004753610 _2_ RTR  --- 0 AODV 48 [0 ffffffff 10 800] ------- [16:255 -1:255 29 0] [0x2 2 1 [1 0] [17 4]] (REQUEST)
r 0.004753611 _1_ RTR  --- 0 AODV 48 [0 ffffffff 10 800] ------- [16:255 -1:255 29 0] [0x2 2 1 [1 0] [17 4]] (REQUEST)
s 0.004753611 _1_ RTR  --- 0 AODV 44 [0 0 0 0] ------- [1:255 17:255 30 16] [0x4 1 [1 4] 10.000000] (REPLY)
s 0.004888611 _1_ MAC  --- 0 ARP 86 [0 ffffffff 1 806] ------- [REQUEST 1/1 0/16]
s 0.004992352 _17_ RTR  --- 0 AODV 48 [0 ffffffff 13 800] ------- [17:255 -1:255 29 0] [0x2 2 1 [0 0] [19 4]] (REQUEST)
D 0.005008381 _15_ MAC  COL 0 AODV 106 [0 ffffffff a 800] ------- [10:255 -1:255 30 0] [0x2 1 1 [7 0] [10 4]] (REQUEST)
D 0.005008587 _12_ MAC  COL 0 AODV 106 [0 ffffffff a 800] ------- [10:255 -1:255 30 0] [0x2 1 1 [7 0] [10 4]] (REQUEST)
r 0.005008615 _14_ MAC  --- 0 AODV 48 [0 ffffffff a 800] ------- [10:255 -1:255 30 0] [0x2 1 1 [7 0] [10 4]] (REQUEST)
r 0.005033615 _14_ RTR  --- 0 AODV 48 [0 ffffffff a 800] ------- [10:255 -1:255 30 0] [0x2 1 1 [7 0] [10 4]] (REQUEST)
s 0.005337886 _10_ MAC  --- 0 AODV 106 [0 ffffffff a 800] ------- [10:255 -1:255 29 0] [0x2 2 1 [3 0] [14 4]] (REQUEST)
r 0.005577335 _7_ MAC  --- 0 ARP 28 [0 ffffffff 1 806] ------- [REQUEST 1/1 0/16]
r 0.005577336 _3_ MAC  --- 0 ARP 28 [0 ffffffff 1 806] ------- [REQUEST 1/1 0/16]
r 0.005577368 _16_ MAC  --- 0 ARP 28 [0 ffffffff 1 806] ------- [REQUEST 1/1 0/16]
s 0.005641777 _19_ RTR  --- 0 AODV 48 [0 ffffffff b 800] ------- [19:255 -1:255 29 0] [0x2 2 1 [7 0] [11 4]] (REQUEST)
s 0.005852368 _16_ MAC  --- 0 RTS 44 [52e 1 10 0] 
s 0.005898870 _11_ RTR  --- 0 AODV 48 [0 ffffffff 13 800] ------- [11:255 -1:255 29 0] [0x2 2 1 [0 0] [19 4]] (REQUEST)
r 0.006186381 _15_ MAC  --- 0 AODV 48 [0 ffffffff a 800] ------- [10:255 -1:255 29 0] [0x2 2 1 [3 0] [14 4]] (REQUEST)
r 0.006186587 _12_ MAC  --- 0 AODV 48 [0 ffffffff a 800] ------- [10:255 -1:255 29 0] [0x2 2 1 [3 0] [14 4]] (REQUEST)
r 0.006186615 _14_ MAC  --- 0 AODV 48 [0 ffffffff a 800] ------- [10:255 -1:255 29 0] [0x2 2 1 [3 0] [14 4]] (REQUEST)
r 0.006205124 _1_ MAC  --- 0 RTS 44 [52e 1 10 0] 
r 0.006211381 _15_ RTR  --- 0 AODV 48 [0 ffffffff a 800] ------- [10:255 -1:255 29 0] [0x2 2 1 [3 0] [14 4]] (REQUEST)
r 0.006211587 _12_ RTR  --- 0 AODV 48 [0 ffffffff a 800] ------- [10:255 -1:255 29 0] [0x2 2 1 [3 0] [14 4]] (REQUEST)
r 0.006211615 _14_ RTR  --- 0 AODV 48 [0 ffffffff a 800] ------- [10:255 -1:255 29 0] [0x2 2 1 [3 0] [14 4]] (REQUEST)
s 0.006215124 _1_ MAC  --- 0 CTS 38 [3f4 10 0 0] 
s 0.006319671 _12_ RTR  --- 0 AODV 48 [0 ffffffff a 800] ------- [12:255 -1:255 28 0] [0x2 3 1 [3 0] [14 4]] (REQUEST)
r 0.006519880 _16_ MAC  --- 0 CTS 38 [3f4 10 0 0] 
s 0.006529880 _16_ MAC  --- 0 ARP 86 [13a 1 10 806] ------- [REPLY 16/16 1/1]
s 0.006907268 _14_ RTR  --- 0 AODV 48 [0 ffffffff a 800] ------- [14:255 -1:255 29 0] [0x2 2 1 [7 0] [10 4]] (REQUEST)
r 0.007218636 _1_ MAC  --- 0 ARP 28 [13a 1 10 806] ------- [REPLY 16/16 1/1]
s 0.007228636 _1_ MAC  --- 0 ACK 38 [0 10 0 0] 
s 0.007337346 _13_ RTR  --- 0 AODV 48 [0 ffffffff e 800] ------- [13:255 -1:255 29 0] [0x2 2 1 [3 0] [14 4]] (REQUEST)
s 0.007482268 _14_ MAC  --- 0 AODV 106 [0 ffffffff e 800] ------- [14:255 -1:255 29 0] [0x2 2 1 [7 0] [10 4]] (REQUEST)
r 0.007533392 _16_ MAC  --- 0 ACK 38 [0 10 0 0] 
s 0.007809280 _9_ RTR  --- 0 AODV 48 [0 ffffffff 4 800] ------- [9:255 -1:255 29 0] [0x2 2 1 [0 0] [4 4]] (REQUEST)
s 0.007882636 _1_ MAC  --- 0 RTS 44 [5ae 10 1 0] 
s 0.008000000 _5_ AGT  --- 10 cbr 1000 [0 0 0 0] ------- [5:0 5:1 32 0] [1] 0 0
r 0.008000000 _5_ AGT  --- 10 cbr 1000 [0 0 0 0] ------- [5:0 5:1 32 0] [1] 0 0
s 0.008000000 _6_ AGT  --- 11 cbr 1000 [0 0 0 0] ------- [6:0 6:1 32 0] [1] 0 0
r 0.008000000 _6_ AGT  --- 11 cbr 1000 [0 0 0 0] ------- [6:0 6:1 32 0] [1] 0 0
s 0.008000000 _4_ AGT  --- 12 cbr 1000 [0 0 0 0] ------- [4:0 0:0 32 0] [1] 0 0
r 0.008000000 _4_ RTR  --- 12 cbr 1000 [0 0 0 0] ------- [4:0 0:0 32 0] [1] 0 0
s 0.008000000 _17_ AGT  --- 13 cbr 1000 [0 0 0 0] ------- [17:0 1:0 32 0] [1] 0 0
r 0.008000000 _17_ RTR  --- 13 cbr 1000 [0 0 0 0] ------- [17:0 1:0 32 0] [1] 0 0
s 0.008000000 _8_ AGT  --- 14 cbr 1000 [0 0 0 0] ------- [8:0 6:2 32 0] [1] 0 0
r 0.008000000 _8_ RTR  --- 14 cbr 1000 [0 0 0 0] ------- [8:0 6:2 32 0] [1] 0 0
s 0.008000000 _10_ AGT  --- 15 cbr 1000 [0 0 0 0] ------- [10:0 7:0 32 0] [1] 0 0
r 0.008000000 _10_ RTR  --- 15 cbr 1000 [0 0 0 0] ------- [10:0 7:0 32 0] [1] 0 0
s 0.008000000 _18_ AGT  --- 16 cbr 1000 [0 0 0 0] ------- [18:0 18:1 32 0] [1] 0 0
r 0.008000000 _18_ AGT  --- 16 cbr 1000 [0 0 0 0] ------- [18:0 18:1 32 0] [1] 0 0
s 0.008000000 _11_ AGT  --- 17 cbr 1000 [0 0 0 0] ------- [11:0 7:1 32 0] [1] 0 0
r 0.008000000 _11_ RTR  --- 17 cbr 1000 [0 0 0 0] ------- [11:0 7:1 32 0] [1] 0 0
s 0.008000000 _14_ AGT  --- 18 cbr 1000 [0 0 0 0] ------- [14:0 3:0 32 0] [1] 0 0
r 0.008000000 _14_ RTR  --- 18 cbr 1000 [0 0 0 0] ------- [14:0 3:0 32 0] [1] 0 0
s 0.008000000 _19_ AGT  --- 19 cbr 1000 [0 0 0 0] ------- [19:0 0:1 32 0] [1] 0 0
r 0.008000000 _19_ RTR  --- 19 cbr 1000 [0 0 0 0] ------- [19:0 0:1 32 0] [1] 0 0
r 0.008235392 _16_ MAC  --- 0 RTS 44 [5ae 10 1 0] 
s 0.008245392 _16_ MAC  --- 0 CTS 38 [474 1 0 0] 
r 0.008330753 _15_ MAC  --- 0 AODV 48 [0 ffffffff e 800] ------- [14:255 -1:255 29 0] [0x2 2 1 [7 0] [10 4]] (REQUEST)
r 0.008330962 _13_ MAC  --- 0 AODV 48 [0 ffffffff e 800] ------- [14:255 -1:255 29 0] [0x2 2 1 [7 0] [10 4]] (REQUEST)
r 0.008330996 _10_ MAC  --- 0 AODV 48 [0 ffffffff e 800] ------- [14:255 -1:255 29 0] [0x2 2 1 [7 0] [10 4]] (REQUEST)
r 0.008355753 _15_ RTR  --- 0 AODV 48 [0 ffffffff e 800] ------- [14:255 -1:255 29 0] [0x2 2 1 [7 0] [10 4]] (REQUEST)
r 0.008355962 _13_ RTR  --- 0 AODV 48 [0 ffffffff e 800] ------- [14:255 -1:255 29 0] [0x2 2 1 [7 0] [10 4]] (REQUEST)
r 0.008355996 _10_ RTR  --- 0 AODV 48 [0 ffffffff e 800] ------- [14:255 -1:255 29 0] [0x2 2 1 [7 0] [10 4]] (REQUEST)
r 0.008550148 _1_ MAC  --- 0 CTS 38 [474 1 0 0] 
s 0.008560148 _1_ MAC  --- 0 AODV 102 [13a 10 1 800] ------- [1:255 17:255 30 16] [0x4 1 [1 4] 10.000000] (REPLY)
s 0.009185197 _15_ MAC  --- 0 AODV 106 [0 ffffffff f 800] ------- [15:255 -1:255 29 0] [0x2 2 1 [3 0] [14 4]] (REQUEST)
r 0.009376904 _16_ MAC  --- 0 AODV 44 [13a 10 1 800] ------- [1:255 17:255 30 16] [0x4 1 [1 4] 10.000000] (REPLY)
s 0.009386904 _16_ MAC  --- 0 ACK 38 [0 1 0 0] 
r 0.009401904 _16_ RTR  --- 0 AODV 44 [13a 10 1 800] ------- [1:255 17:255 30 16] [0x4 1 [1 4] 10.000000] (REPLY)
f 0.009401904 _16_ RTR  --- 0 AODV 44 [13a 10 1 800] ------- [1:255 17:255 29 17] [0x4 2 [1 4] 10.000000] (REPLY)
r 0.009691660 _1_ MAC  --- 0 ACK 38 [0 1 0 0] 
s 0.009991341 _17_ MAC  --- 0 AODV 106 [0 ffffffff 11 800] ------- [17:255 -1:255 29 0] [0x2 2 1 [0 0] [19 4]] (REQUEST)
r 0.010033683 _14_ MAC  --- 0 AODV 48 [0 ffffffff f 800] ------- [15:255 -1:255 29 0] [0x2 2 1 [3 0] [14 4]] (REQUEST)
r 0.010033692 _10_ MAC  --- 0 AODV 48 [0 ffffffff f 800] ------- [15:255 -1:255 29 0] [0x2 2 1 [3 0] [14 4]] (REQUEST)
r 0.010033705 _12_ MAC  --- 0 AODV 48 [0 ffffffff f 800] ------- [15:255 -1:255 29 0] [0x2 2 1 [3 0] [14 4]] (REQUEST)
r 0.010033749 _13_ MAC  --- 0 AODV 48 [0 ffffffff f 800] ------- [15:255 -1:255 29 0] [0x2 2 1 [3 0] [14 4]] (REQUEST)
r 0.010058683 _14_ RTR  --- 0 AODV 48 [0 ffffffff f 800] ------- [15:255 -1:255 29 0] [0x2 2 1 [3 0] [14 4]] (REQUEST)
r 0.010058692 _10_ RTR  --- 0 AODV 48 [0 ffffffff f 800] ------- [15:255 -1:255 29 0] [0x2 2 1 [3 0] [14 4]] (REQUEST)
r 0.010058705 _12_ RTR  --- 0 AODV 48 [0 ffffffff f 800] ------- [15:255 -1:255 29 0] [0x2 2 1 [3 0] [14 4]] (REQUEST)
r 0.010058749 _13_ RTR  --- 0 AODV 48 [0 ffffffff f 800] ------- [15:255 -1:255 29 0] [0x2 2 1 [3 0] [14 4]] (REQUEST)
s 0.010105756 _5_ RTR  --- 0 AODV 48 [0 ffffffff 8 800] ------- [5:255 -1:255 29 0] [0x2 2 1 [6 0] [8 4]] (REQUEST)
s 0.010260756 _5_ MAC  --- 0 AODV 106 [0 ffffffff 5 800] ------- [5:255 -1:255 29 0] [0x2 2 1 [6 0] [8 4]] (REQUEST)
s 0.010481695 _16_ RTR  --- 0 AODV 48 [0 ffffffff 13 800] ------- [16:255 -1:255 29 0] [0x2 2 1 [0 0] [19 4]] (REQUEST)
s 0.010728705 _9_ MAC  --- 0 AODV 106 [0 ffffffff 9 800] ------- [9:255 -1:255 29 0] [0x2 2 1 [0 0] [4 4]] (REQUEST)
D 0.010840019 _18_ MAC  COL 0 AODV 106 [0 ffffffff 11 800] ------- [17:255 -1:255 29 0] [0x2 2 1 [0 0] [19 4]] (REQUEST)
r 0.010840038 _16_ MAC  --- 0 AODV 48 [0 ffffffff 11 800] ------- [17:255 -1:255 29 0] [0x2 2 1 [0 0] [19 4]] (REQUEST)
D 0.010840078 _19_ MAC  COL 0 AODV 106 [0 ffffffff 11 800] ------- [17:255 -1:255 29 0] [0x2 2 1 [0 0] [19 4]] (REQUEST)
r 0.010865038 _16_ RTR  --- 0 AODV 48 [0 ffffffff 11 800] ------- [17:255 -1:255 29 0] [0x2 2 1 [0 0] [19 4]] (REQUEST)
r 0.011109234 _8_ MAC  --- 0 AODV 48 [0 ffffffff 5 800] ------- [5:255 -1:255 29 0] [0x2 2 1 [6 0] [8 4]] (REQUEST)
r 0.011134234 _8_ RTR  --- 0 AODV 48 [0 ffffffff 5 800] ------- [5:255 -1:255 29 0] [0x2 2 1 [6 0] [8 4]] (REQUEST)
s 0.011526847 _3_ RTR  --- 0 AODV 48 [0 ffffffff 10 800] ------- [3:255 -1:255 28 0] [0x2 3 1 [1 0] [17 4]] (REQUEST)
r 0.011577308 _4_ MAC  --- 0 AODV 48 [0 ffffffff 9 800] ------- [9:255 -1:255 29 0] [0x2 2 1 [0 0] [4 4]] (REQUEST)
D 0.011577466 _2_ MAC  COL 0 AODV 106 [0 ffffffff 9 800] ------- [9:255 -1:255 29 0] [0x2 2 1 [0 0] [4 4]] (REQUEST)
D 0.011577535 _0_ MAC  COL 0 AODV 106 [0 ffffffff 9 800] ------- [9:255 -1:255 29 0] [0x2 2 1 [0 0] [4 4]] (REQUEST)
r 0.011602308 _4_ RTR  --- 0 AODV 48 [0 ffffffff 9 800] ------- [9:255 -1:255 29 0] [0x2 2 1 [0 0] [4 4]] (REQUEST)
s 0.011614604 _11_ MAC  --- 0 AODV 106 [0 ffffffff b 800] ------- [11:255 -1:255 29 0] [0x2 2 1 [0 0] [19 4]] (REQUEST)
s 0.011868296 _18_ RTR  --- 0 AODV 48 [0 ffffffff b 800] ------- [18:255 -1:255 29 0] [0x2 2 1 [7 0] [11 4]] (REQUEST)
s 0.012090521 _13_ RTR  --- 0 AODV 48 [0 ffffffff b 800] ------- [13:255 -1:255 29 0] [0x2 2 1 [7 0] [11 4]] (REQUEST)
s 0.012375847 _19_ RTR  --- 0 AODV 48 [0 ffffffff 10 800] ------- [19:255 -1:255 28 0] [0x2 3 1 [1 0] [17 4]] (REQUEST)
r 0.012462993 _13_ MAC  --- 0 AODV 48 [0 ffffffff b 800] ------- [11:255 -1:255 29 0] [0x2 2 1 [0 0] [19 4]] (REQUEST)
r 0.012463188 _18_ MAC  --- 0 AODV 48 [0 ffffffff b 800] ------- [11:255 -1:255 29 0] [0x2 2 1 [0 0] [19 4]] (REQUEST)
r 0.012463327 _19_ MAC  --- 0 AODV 48 [0 ffffffff b 800] ------- [11:255 -1:255 29 0] [0x2 2 1 [0 0] [19 4]] (REQUEST)
r 0.012487993 _13_ RTR  --- 0 AODV 48 [0 ffffffff b 800] ------- [11:255 -1:255 29 0] [0x2 2 1 [0 0] [19 4]] (REQUEST)
r 0.012488188 _18_ RTR  --- 0 AODV 48 [0 ffffffff b 800] ------- [11:255 -1:255 29 0] [0x2 2 1 [0 0] [19 4]] (REQUEST)
r 0.012488327 _19_ RTR  --- 0 AODV 48 [0 ffffffff b 800] ------- [11:255 -1:255 29 0] [0x2 2 1 [0 0] [19 4]] (REQUEST)
s 0.012572993 _13_ MAC  --- 0 AODV 106 [0 ffffffff d 800] ------- [13:255 -1:255 29 0] [0x2 2 1 [3 0] [14 4]] (REQUEST)
r 0.013421381 _11_ MAC  --- 0 AODV 48 [0 ffffffff d 800] ------- [13:255 -1:255 29 0] [0x2 2 1 [3 0] [14 4]] (REQUEST)
r 0.013421545 _15_ MAC  --- 0 AODV 48 [0 ffffffff d 800] ------- [13:255 -1:255 29 0] [0x2 2 1 [3 0] [14 4]] (REQUEST)
r 0.013421687 _14_ MAC  --- 0 AODV 48 [0 ffffffff d 800] ------- [13:255 -1:255 29 0] [0x2 2 1 [3 0] [14 4]] (REQUEST)
r 0.013421752 _12_ MAC  --- 0 AODV 48 [0 ffffffff d 800] ------- [13:255 -1:255 29 0] [0x2 2 1 [3 0] [14 4]] (REQUEST)
r 0.013446381 _11_ RTR  --- 0 AODV 48 [0 ffffffff d 800] ------- [13:255 -1:255 29 0] [0x2 2 1 [3 0] [14 4]] (REQUEST)
r 0.013446545 _15_ RTR  --- 0 AODV 48 [0 ffffffff d 800] ------- [13:255 -1:255 29 0] [0x2 2 1 [3 0] [14 4]] (REQUEST)
r 0.013446687 _14_ RTR  --- 0 AODV 48 [0 ffffffff d 800] ------- [13:255 -1:255 29 0] [0x2 2 1 [3 0] [14 4]] (REQUEST)
r 0.013446752 _12_ RTR  --- 0 AODV 48 [0 ffffffff d 800] ------- [13:255 -1:255 29 0] [0x2 2 1 [3 0] [14 4]] (REQUEST)
s 0.013591752 _12_ MAC  --- 0 AODV 106 [0 ffffffff c 800] ------- [12:255 -1:255 28 0] [0x2 3 1 [3 0] [14 4]] (REQUEST)
s 0.013803065 _2_ RTR  --- 0 AODV 48 [0 ffffffff 10 800] ------- [2:255 -1:255 28 0] [0x2 3 1 [1 0] [17 4]] (REQUEST)
s 0.013803973 _15_ RTR  --- 0 AODV 48 [0 ffffffff e 800] ------- [15:255 -1:255 28 0] [0x2 3 1 [7 0] [10 4]] (REQUEST)
r 0.014440259 _15_ MAC  --- 0 AODV 48 [0 ffffffff c 800] ------- [12:255 -1:255 28 0] [0x2 3 1 [3 0] [14 4]] (REQUEST)
r 0.014440453 _10_ MAC  --- 0 AODV 48 [0 ffffffff c 800] ------- [12:255 -1:255 28 0] [0x2 3 1 [3 0] [14 4]] (REQUEST)
r 0.014440456 _2_ MAC  --- 0 AODV 48 [0 ffffffff c 800] ------- [12:255 -1:255 28 0] [0x2 3 1 [3 0] [14 4]] (REQUEST)
r 0.014440511 _13_ MAC  --- 0 AODV 48 [0 ffffffff c 800] ------- [12:255 -1:255 28 0] [0x2 3 1 [3 0] [14 4]] (REQUEST)
r 0.014465259 _15_ RTR  --- 0 AODV 48 [0 ffffffff c 800] ------- [12:255 -1:255 28 0] [0x2 3 1 [3 0] [14 4]] (REQUEST)
r 0.014465453 _10_ RTR  --- 0 AODV 48 [0 ffffffff c 800] ------- [12:255 -1:255 28 0] [0x2 3 1 [3 0] [14 4]] (REQUEST)
r 0.014465456 _2_ RTR  --- 0 AODV 48 [0 ffffffff c 800] ------- [12:255 -1:255 28 0] [0x2 3 1 [3 0] [14 4]] (REQUEST)
r 0.014465511 _13_ RTR  --- 0 AODV 48 [0 ffffffff c 800] ------- [12:255 -1:255 28 0] [0x2 3 1 [3 0] [14 4]] (REQUEST)
s 0.014555333 _13_ RTR  --- 0 AODV 48 [0 ffffffff b 800] ------- [13:255 -1:255 28 0] [0x2 3 1 [0 0] [19 4]] (REQUEST)
s 0.014610259 _15_ MAC  --- 0 AODV 106 [0 ffffffff f 800] ------- [15:255 -1:255 28 0] [0x2 3 1 [7 0] [10 4]] (REQUEST)
s 0.015095141 _3_ MAC  --- 0 AODV 106 [0 ffffffff 3 800] ------- [3:255 -1:255 28 0] [0x2 3 1 [1 0] [17 4]] (REQUEST)
s 0.015233660 _11_ RTR  --- 0 AODV 48 [0 ffffffff d 800] ------- [11:255 -1:255 28 0] [0x2 3 1 [3 0] [14 4]] (REQUEST)
r 0.015458745 _14_ MAC  --- 0 AODV 48 [0 ffffffff f 800] ------- [15:255 -1:255 28 0] [0x2 3 1 [7 0] [10 4]] (REQUEST)
r 0.015458754 _10_ MAC  --- 0 AODV 48 [0 ffffffff f 800] ------- [15:255 -1:255 28 0] [0x2 3 1 [7 0] [10 4]] (REQUEST)
r 0.015458767 _12_ MAC  --- 0 AODV 48 [0 ffffffff f 800] ------- [15:255 -1:255 28 0] [0x2 3 1 [7 0] [10 4]] (REQUEST)
r 0.015458811 _13_ MAC  --- 0 AODV 48 [0 ffffffff f 800] ------- [15:255 -1:255 28 0] [0x2 3 1 [7 0] [10 4]] (REQUEST)
r 0.015483745 _14_ RTR  --- 0 AODV 48 [0 ffffffff f 800] ------- [15:255 -1:255 28 0] [0x2 3 1 [7 0] [10 4]] (REQUEST)
r 0.015483754 _10_ RTR  --- 0 AODV 48 [0 ffffffff f 800] ------- [15:255 -1:255 28 0] [0x2 3 1 [7 0] [10 4]] (REQUEST)
r 0.015483767 _12_ RTR  --- 0 AODV 48 [0 ffffffff f 800] ------- [15:255 -1:255 28 0] [0x2 3 1 [7 0] [10 4]] (REQUEST)
r 0.015483811 _13_ RTR  --- 0 AODV 48 [0 ffffffff f 800] ------- [15:255 -1:255 28 0] [0x2 3 1 [7 0] [10 4]] (REQUEST)
D 0.015943643 _16_ MAC  COL 0 AODV 106 [0 ffffffff 3 800] ------- [3:255 -1:255 28 0] [0x2 3 1 [1 0] [17 4]] (REQUEST)
D 0.015943839 _2_ MAC  COL 0 AODV 106 [0 ffffffff 3 800] ------- [3:255 -1:255 28 0] [0x2 3 1 [1 0] [17 4]] (REQUEST)
r 0.015943865 _1_ MAC  --- 0 AODV 48 [0 ffffffff 3 800] ------- [3:255 -1:255 28 0] [0x2 3 1 [1 0] [17 4]] (REQUEST)
r 0.015943929 _0_ MAC  --- 0 AODV 48 [0 ffffffff 3 800] ------- [3:255 -1:255 28 0] [0x2 3 1 [1 0] [17 4]] (REQUEST)
r 0.015968865 _1_ RTR  --- 0 AODV 48 [0 ffffffff 3 800] ------- [3:255 -1:255 28 0] [0x2 3 1 [1 0] [17 4]] (REQUEST)
r 0.015968929 _0_ RTR  --- 0 AODV 48 [0 ffffffff 3 800] ------- [3:255 -1:255 28 0] [0x2 3 1 [1 0] [17 4]] (REQUEST)
s 0.016000000 _5_ AGT  --- 20 cbr 1000 [0 0 0 0] ------- [5:0 5:1 32 0] [2] 0 0
r 0.016000000 _5_ AGT  --- 20 cbr 1000 [0 0 0 0] ------- [5:0 5:1 32 0] [2] 0 0
s 0.016000000 _6_ AGT  --- 21 cbr 1000 [0 0 0 0] ------- [6:0 6:1 32 0] [2] 0 0
r 0.016000000 _6_ AGT  --- 21 cbr 1000 [0 0 0 0] ------- [6:0 6:1 32 0] [2] 0 0
s 0.016000000 _4_ AGT  --- 22 cbr 1000 [0 0 0 0] ------- [4:0 0:0 32 0] [2] 0 0
r 0.016000000 _4_ RTR  --- 22 cbr 1000 [0 0 0 0] ------- [4:0 0:0 32 0] [2] 0 0
s 0.016000000 _17_ AGT  --- 23 cbr 1000 [0 0 0 0] ------- [17:0 1:0 32 0] [2] 0 0
r 0.016000000 _17_ RTR  --- 23 cbr 1000 [0 0 0 0] ------- [17:0 1:0 32 0] [2] 0 0
s 0.016000000 _8_ AGT  --- 24 cbr 1000 [0 0 0 0] ------- [8:0 6:2 32 0] [2] 0 0
r 0.016000000 _8_ RTR  --- 24 cbr 1000 [0 0 0 0] ------- [8:0 6:2 32 0] [2] 0 0
s 0.016000000 _10_ AGT  --- 25 cbr 1000 [0 0 0 0] ------- [10:0 7:0 32 0] [2] 0 0
r 0.016000000 _10_ RTR  --- 25 cbr 1000 [0 0 0 0] ------- [10:0 7:0 32 0] [2] 0 0
s 0.016000000 _18_ AGT  --- 26 cbr 1000 [0 0 0 0] ------- [18:0 18:1 32 0] [2] 0 0
r 0.016000000 _18_ AGT  --- 26 cbr 1000 [0 0 0 0] ------- [18:0 18:1 32 0] [2] 0 0
s 0.016000000 _11_ AGT  --- 27 cbr 1000 [0 0 0 0] ------- [11:0 7:1 32 0] [2] 0 0
r 0.016000000 _11_ RTR  --- 27 cbr 1000 [0 0 0 0] ------- [11:0 7:1 32 0] [2] 0 0
s 0.016000000 _14_ AGT  --- 28 cbr 1000 [0 0 0 0] ------- [14:0 3:0 32 0] [2] 0 0
r 0.016000000 _14_ RTR  --- 28 cbr 1000 [0 0 0 0] ------- [14:0 3:0 32 0] [2] 0 0
s 0.016000000 _19_ AGT  --- 29 cbr 1000 [0 0 0 0] ------- [19:0 0:1 32 0] [2] 0 0
r 0.016000000 _19_ RTR  --- 29 cbr 1000 [0 0 0 0] ------- [19:0 0:1 32 0] [2] 0 0
s 0.016458834 _11_ MAC  --- 0 AODV 106 [0 ffffffff b 800] ------- [11:255 -1:255 28 0] [0x2 3 1 [3 0] [14 4]] (REQUEST)
s 0.017122519 _13_ RTR  --- 0 AODV 48 [0 ffffffff e 800] ------- [13:255 -1:255 28 0] [0x2 3 1 [7 0] [10 4]] (REQUEST)
r 0.017307223 _13_ MAC  --- 0 AODV 48 [0 ffffffff b 800] ------- [11:255 -1:255 28 0] [0x2 3 1 [3 0] [14 4]] (REQUEST)
r 0.017307419 _18_ MAC  --- 0 AODV 48 [0 ffffffff b 800] ------- [11:255 -1:255 28 0] [0x2 3 1 [3 0] [14 4]] (REQUEST)
r 0.017307557 _19_ MAC  --- 0 AODV 48 [0 ffffffff b 800] ------- [11:255 -1:255 28 0] [0x2 3 1 [3 0] [14 4]] (REQUEST)
r 0.017332223 _13_ RTR  --- 0 AODV 48 [0 ffffffff b 800] ------- [11:255 -1:255 28 0] [0x2 3 1 [3 0] [14 4]] (REQUEST)
r 0.017332419 _18_ RTR  --- 0 AODV 48 [0 ffffffff b 800] ------- [11:255 -1:255 28 0] [0x2 3 1 [3 0] [14 4]] (REQUEST)
r 0.017332557 _19_ RTR  --- 0 AODV 48 [0 ffffffff b 800] ------- [11:255 -1:255 28 0] [0x2 3 1 [3 0] [14 4]] (REQUEST)
s 0.017397557 _19_ MAC  --- 0 AODV 106 [0 ffffffff 13 800] ------- [19:255 -1:255 29 0] [0x2 2 1 [7 0] [11 4]] (REQUEST)
s 0.018214420 _18_ RTR  --- 0 AODV 48 [0 ffffffff b 800] ------- [18:255 -1:255 27 0] [0x2 4 1 [3 0] [14 4]] (REQUEST)
r 0.018245921 _18_ MAC  --- 0 AODV 48 [0 ffffffff 13 800] ------- [19:255 -1:255 29 0] [0x2 2 1 [7 0] [11 4]] (REQUEST)
r 0.018246208 _2_ MAC  --- 0 AODV 48 [0 ffffffff 13 800] ------- [19:255 -1:255 29 0] [0x2 2 1 [7 0] [11 4]] (REQUEST)
r 0.018246230 _16_ MAC  --- 0 AODV 48 [0 ffffffff 13 800] ------- [19:255 -1:255 29 0] [0x2 2 1 [7 0] [11 4]] (REQUEST)
r 0.018246280 _11_ MAC  --- 0 AODV 48 [0 ffffffff 13 800] ------- [19:255 -1:255 29 0] [0x2 2 1 [7 0] [11 4]] (REQUEST)
r 0.018246293 _17_ MAC  --- 0 AODV 48 [0 ffffffff 13 800] ------- [19:255 -1:255 29 0] [0x2 2 1 [7 0] [11 4]] (REQUEST)
r 0.018270921 _18_ RTR  --- 0 AODV 48 [0 ffffffff 13 800] ------- [19:255 -1:255 29 0] [0x2 2 1 [7 0] [11 4]] (REQUEST)
r 0.018271208 _2_ RTR  --- 0 AODV 48 [0 ffffffff 13 800] ------- [19:255 -1:255 29 0] [0x2 2 1 [7 0] [11 4]] (REQUEST)
r 0.018271230 _16_ RTR  --- 0 AODV 48 [0 ffffffff 13 800] ------- [19:255 -1:255 29 0] [0x2 2 1 [7 0] [11 4]] (REQUEST)
r 0.018271280 _11_ RTR  --- 0 AODV 48 [0 ffffffff 13 800] ------- [19:255 -1:255 29 0] [0x2 2 1 [7 0] [11 4]] (REQUEST)
r 0.018271293 _17_ RTR  --- 0 AODV 48 [0 ffffffff 13 800] ------- [19:255 -1:255 29 0] [0x2 2 1 [7 0] [11 4]] (REQUEST)
s 0.018355557 _19_ MAC  --- 0 AODV 106 [0 ffffffff 13 800] ------- [19:255 -1:255 28 0] [0x2 3 1 [1 0] [17 4]] (REQUEST)
r 0.019203921 _18_ MAC  --- 0 AODV 48 [0 ffffffff 13 800] ------- [19:255 -1:255 28 0] [0x2 3 1 [1 0] [17 4]] (REQUEST)
r 0.019204208 _2_ MAC  --- 0 AODV 48 [0 ffffffff 13 800] ------- [19:255 -1:255 28 0] [0x2 3 1 [1 0] [17 4]] (REQUEST)
r 0.019204230 _16_ MAC  --- 0 AODV 48 [0 ffffffff 13 800] ------- [19:255 -1:255 28 0] [0x2 3 1 [1 0] [17 4]] (REQUEST)
r 0.019204280 _11_ MAC  --- 0 AODV 48 [0 ffffffff 13 800] ------- [19:255 -1:255 28 0] [0x2 3 1 [1 0] [17 4]] (REQUEST)
r 0.019204293 _17_ MAC  --- 0 AODV 48 [0 ffffffff 13 800] ------- [19:255 -1:255 28 0] [0x2 3 1 [1 0] [17 4]] (REQUEST)
r 0.019228921 _18_ RTR  --- 0 AODV 48 [0 ffffffff 13 800] ------- [19:255 -1:255 28 0] [0x2 3 1 [1 0] [17 4]] (REQUEST)
r 0.019229208 _2_ RTR  --- 0 AODV 48 [0 ffffffff 13 800] ------- [19:255 -1:255 28 0] [0x2 3 1 [1 0] [17 4]] (REQUEST)
r 0.019229230 _16_ RTR  --- 0 AODV 48 [0 ffffffff 13 800] ------- [19:255 -1:255 28 0] [0x2 3 1 [1 0] [17 4]] (REQUEST)
r 0.019229280 _11_ RTR  --- 0 AODV 48 [0 ffffffff 13 800] ------- [19:255 -1:255 28 0] [0x2 3 1 [1 0] [17 4]] (REQUEST)
r 0.019229293 _17_ RTR  --- 0 AODV 48 [0 ffffffff 13 800] ------- [19:255 -1:255 28 0] [0x2 3 1 [1 0] [17 4]] (REQUEST)
s 0.019373921 _18_ MAC  --- 0 AODV 106 [0 ffffffff 12 800] ------- [18:255 -1:255 29 0] [0x2 2 1 [0 0] [19 4]] (REQUEST)
s 0.019382673 _2_ RTR  --- 0 AODV 48 [0 ffffffff c 800] ------- [2:255 -1:255 27 0] [0x2 4 1 [3 0] [14 4]] (REQUEST)
r 0.020222284 _19_ MAC  --- 0 AODV 48 [0 ffffffff 12 800] ------- [18:255 -1:255 29 0] [0x2 2 1 [0 0] [19 4]] (REQUEST)
r 0.020222505 _11_ MAC  --- 0 AODV 48 [0 ffffffff 12 800] ------- [18:255 -1:255 29 0] [0x2 2 1 [0 0] [19 4]] (REQUEST)
r 0.020222598 _17_ MAC  --- 0 AODV 48 [0 ffffffff 12 800] ------- [18:255 -1:255 29 0] [0x2 2 1 [0 0] [19 4]] (REQUEST)
r 0.020247284 _19_ RTR  --- 0 AODV 48 [0 ffffffff 12 800] ------- [18:255 -1:255 29 0] [0x2 2 1 [0 0] [19 4]] (REQUEST)
r 0.020247505 _11_ RTR  --- 0 AODV 48 [0 ffffffff 12 800] ------- [18:255 -1:255 29 0] [0x2 2 1 [0 0] [19 4]] (REQUEST)