s 0.500000000 _16_ AGT  --- 0 cbr 1000 [0 0 0 0] ------- [16:0 18:0 32 0] [0] 0 0
r 0.500000000 _16_ RTR  --- 0 cbr 1000 [0 0 0 0] ------- [16:0 18:0 32 0] [0] 0 0
s 0.500000000 _16_ RTR  --- 0 AODV 48 [0 0 0 0] ------- [16:255 -1:255 30 0] [0x2 1 1 [18 0] [16 4]] (REQUEST)
s 0.500535000 _16_ MAC  --- 0 AODV 106 [0 ffffffff 10 800] ------- [16:255 -1:255 30 0] [0x2 1 1 [18 0] [16 4]] (REQUEST)
r 0.501383703 _15_ MAC  --- 0 AODV 48 [0 ffffffff 10 800] ------- [16:255 -1:255 30 0] [0x2 1 1 [18 0] [16 4]] (REQUEST)
r 0.501408703 _15_ RTR  --- 0 AODV 48 [0 ffffffff 10 800] ------- [16:255 -1:255 30 0] [0x2 1 1 [18 0] [16 4]] (REQUEST)
s 0.501550749 _15_ RTR  --- 0 AODV 48 [0 ffffffff 10 800] ------- [15:255 -1:255 29 0] [0x2 2 1 [18 0] [16 4]] (REQUEST)
s 0.501925749 _15_ MAC  --- 0 AODV 106 [0 ffffffff f 800] ------- [15:255 -1:255 29 0] [0x2 2 1 [18 0] [16 4]] (REQUEST)
r 0.502774440 _3_ MAC  --- 0 AODV 48 [0 ffffffff f 800] ------- [15:255 -1:255 29 0] [0x2 2 1 [18 0] [16 4]] (REQUEST)
r 0.502774452 _16_ MAC  --- 0 AODV 48 [0 ffffffff f 800] ------- [15:255 -1:255 29 0] [0x2 2 1 [18 0] [16 4]] (REQUEST)
r 0.502799440 _3_ RTR  --- 0 AODV 48 [0 ffffffff f 800] ------- [15:255 -1:255 29 0] [0x2 2 1 [18 0] [16 4]] (REQUEST)
r 0.502799452 _16_ RTR  --- 0 AODV 48 [0 ffffffff f 800] ------- [15:255 -1:255 29 0] [0x2 2 1 [18 0] [16 4]] (REQUEST)
s 0.508000000 _16_ AGT  --- 1 cbr 1000 [0 0 0 0] ------- [16:0 18:0 32 0] [1] 0 0
r 0.508000000 _16_ RTR  --- 1 cbr 1000 [0 0 0 0] ------- [16:0 18:0 32 0] [1] 0 0
s 0.510790994 _3_ RTR  --- 0 AODV 48 [0 ffffffff f 800] ------- [3:255 -1:255 28 0] [0x2 3 1 [18 0] [16 4]] (REQUEST)
s 0.511025994 _3_ MAC  --- 0 AODV 106 [0 ffffffff 3 800] ------- [3:255 -1:255 28 0] [0x2 3 1 [18 0] [16 4]] (REQUEST)
r 0.511874593 _2_ MAC  --- 0 AODV 48 [0 ffffffff 3 800] ------- [3:255 -1:255 28 0] [0x2 3 1 [18 0] [16 4]] (REQUEST)
r 0.511874680 _4_ MAC  --- 0 AODV 48 [0 ffffffff 3 800] ------- [3:255 -1:255 28 0] [0x2 3 1 [18 0] [16 4]] (REQUEST)
r 0.511874685 _15_ MAC  --- 0 AODV 48 [0 ffffffff 3 800] ------- [3:255 -1:255 28 0] [0x2 3 1 [18 0] [16 4]] (REQUEST)
r 0.511899593 _2_ RTR  --- 0 AODV 48 [0 ffffffff 3 800] ------- [3:255 -1:255 28 0] [0x2 3 1 [18 0] [16 4]] (REQUEST)
r 0.511899680 _4_ RTR  --- 0 AODV 48 [0 ffffffff 3 800] ------- [3:255 -1:255 28 0] [0x2 3 1 [18 0] [16 4]] (REQUEST)
r 0.511899685 _15_ RTR  --- 0 AODV 48 [0 ffffffff 3 800] ------- [3:255 -1:255 28 0] [0x2 3 1 [18 0] [16 4]] (REQUEST)
s 0.514245611 _2_ RTR  --- 0 AODV 48 [0 ffffffff 3 800] ------- [2:255 -1:255 27 0] [0x2 4 1 [18 0] [16 4]] (REQUEST)
s 0.514580611 _2_ MAC  --- 0 AODV 106 [0 ffffffff 2 800] ------- [2:255 -1:255 27 0] [0x2 4 1 [18 0] [16 4]] (REQUEST)
r 0.515429161 _1_ MAC  --- 0 AODV 48 [0 ffffffff 2 800] ------- [2:255 -1:255 27 0] [0x2 4 1 [18 0] [16 4]] (REQUEST)
r 0.515429193 _8_ MAC  --- 0 AODV 48 [0 ffffffff 2 800] ------- [2:255 -1:255 27 0] [0x2 4 1 [18 0] [16 4]] (REQUEST)
r 0.515429209 _3_ MAC  --- 0 AODV 48 [0 ffffffff 2 800] ------- [2:255 -1:255 27 0] [0x2 4 1 [18 0] [16 4]] (REQUEST)
r 0.515454161 _1_ RTR  --- 0 AODV 48 [0 ffffffff 2 800] ------- [2:255 -1:255 27 0] [0x2 4 1 [18 0] [16 4]] (REQUEST)
r 0.515454193 _8_ RTR  --- 0 AODV 48 [0 ffffffff 2 800] ------- [2:255 -1:255 27 0] [0x2 4 1 [18 0] [16 4]] (REQUEST)
r 0.515454209 _3_ RTR  --- 0 AODV 48 [0 ffffffff 2 800] ------- [2:255 -1:255 27 0] [0x2 4 1 [18 0] [16 4]] (REQUEST)
s 0.515882138 _8_ RTR  --- 0 AODV 48 [0 ffffffff 2 800] ------- [8:255 -1:255 26 0] [0x2 5 1 [18 0] [16 4]] (REQUEST)
s 0.516000000 _16_ AGT  --- 2 cbr 1000 [0 0 0 0] ------- [16:0 18:0 32 0] [2] 0 0
r 0.516000000 _16_ RTR  --- 2 cbr 1000 [0 0 0 0] ------- [16:0 18:0 32 0] [2] 0 0
s 0.516117138 _8_ MAC  --- 0 AODV 106 [0 ffffffff 8 800] ------- [8:255 -1:255 26 0] [0x2 5 1 [18 0] [16 4]] (REQUEST)
r 0.516965721 _2_ MAC  --- 0 AODV 48 [0 ffffffff 8 800] ------- [8:255 -1:255 26 0] [0x2 5 1 [18 0] [16 4]] (REQUEST)
r 0.516965823 _9_ MAC  --- 0 AODV 48 [0 ffffffff 8 800] ------- [8:255 -1:255 26 0] [0x2 5 1 [18 0] [16 4]] (REQUEST)
r 0.516965884 _1_ MAC  --- 0 AODV 48 [0 ffffffff 8 800] ------- [8:255 -1:255 26 0] [0x2 5 1 [18 0] [16 4]] (REQUEST)
r 0.516990721 _2_ RTR  --- 0 AODV 48 [0 ffffffff 8 800] ------- [8:255 -1:255 26 0] [0x2 5 1 [18 0] [16 4]] (REQUEST)
r 0.516990823 _9_ RTR  --- 0 AODV 48 [0 ffffffff 8 800] ------- [8:255 -1:255 26 0] [0x2 5 1 [18 0] [16 4]] (REQUEST)
r 0.516990884 _1_ RTR  --- 0 AODV 48 [0 ffffffff 8 800] ------- [8:255 -1:255 26 0] [0x2 5 1 [18 0] [16 4]] (REQUEST)
s 0.517095615 _1_ RTR  --- 0 AODV 48 [0 ffffffff 2 800] ------- [1:255 -1:255 26 0] [0x2 5 1 [18 0] [16 4]] (REQUEST)
s 0.517330615 _1_ MAC  --- 0 AODV 106 [0 ffffffff 1 800] ------- [1:255 -1:255 26 0] [0x2 5 1 [18 0] [16 4]] (REQUEST)
r 0.518179063 _0_ MAC  --- 0 AODV 48 [0 ffffffff 1 800] ------- [1:255 -1:255 26 0] [0x2 5 1 [18 0] [16 4]] (REQUEST)
r 0.518179166 _2_ MAC  --- 0 AODV 48 [0 ffffffff 1 800] ------- [1:255 -1:255 26 0] [0x2 5 1 [18 0] [16 4]] (REQUEST)
r 0.518179361 _8_ MAC  --- 0 AODV 48 [0 ffffffff 1 800] ------- [1:255 -1:255 26 0] [0x2 5 1 [18 0] [16 4]] (REQUEST)
r 0.518204063 _0_ RTR  --- 0 AODV 48 [0 ffffffff 1 800] ------- [1:255 -1:255 26 0] [0x2 5 1 [18 0] [16 4]] (REQUEST)
r 0.518204166 _2_ RTR  --- 0 AODV 48 [0 ffffffff 1 800] ------- [1:255 -1:255 26 0] [0x2 5 1 [18 0] [16 4]] (REQUEST)
r 0.518204361 _8_ RTR  --- 0 AODV 48 [0 ffffffff 1 800] ------- [1:255 -1:255 26 0] [0x2 5 1 [18 0] [16 4]] (REQUEST)
s 0.518288332 _4_ RTR  --- 0 AODV 48 [0 ffffffff 3 800] ------- [4:255 -1:255 27 0] [0x2 4 1 [18 0] [16 4]] (REQUEST)
s 0.518913674 _4_ MAC  --- 0 AODV 106 [0 ffffffff 4 800] ------- [4:255 -1:255 27 0] [0x2 4 1 [18 0] [16 4]] (REQUEST)
s 0.519145452 _0_ RTR  --- 0 AODV 48 [0 ffffffff 1 800] ------- [0:255 -1:255 25 0] [0x2 6 1 [18 0] [16 4]] (REQUEST)
r 0.519762170 _5_ MAC  --- 0 AODV 48 [0 ffffffff 4 800] ------- [4:255 -1:255 27 0] [0x2 4 1 [18 0] [16 4]] (REQUEST)
r 0.519762211 _6_ MAC  --- 0 AODV 48 [0 ffffffff 4 800] ------- [4:255 -1:255 27 0] [0x2 4 1 [18 0] [16 4]] (REQUEST)
r 0.519762360 _3_ MAC  --- 0 AODV 48 [0 ffffffff 4 800] ------- [4:255 -1:255 27 0] [0x2 4 1 [18 0] [16 4]] (REQUEST)
r 0.519787170 _5_ RTR  --- 0 AODV 48 [0 ffffffff 4 800] ------- [4:255 -1:255 27 0] [0x2 4 1 [18 0] [16 4]] (REQUEST)
r 0.519787211 _6_ RTR  --- 0 AODV 48 [0 ffffffff 4 800] ------- [4:255 -1:255 27 0] [0x2 4 1 [18 0] [16 4]] (REQUEST)
r 0.519787360 _3_ RTR  --- 0 AODV 48 [0 ffffffff 4 800] ------- [4:255 -1:255 27 0] [0x2 4 1 [18 0] [16 4]] (REQUEST)
s 0.520376625 _0_ MAC  --- 0 AODV 106 [0 ffffffff 0 800] ------- [0:255 -1:255 25 0] [0x2 6 1 [18 0] [16 4]] (REQUEST)
r 0.521225073 _1_ MAC  --- 0 AODV 48 [0 ffffffff 0 800] ------- [0:255 -1:255 25 0] [0x2 6 1 [18 0] [16 4]] (REQUEST)
r 0.521225240 _5_ MAC  --- 0 AODV 48 [0 ffffffff 0 800] ------- [0:255 -1:255 25 0] [0x2 6 1 [18 0] [16 4]] (REQUEST)
r 0.521225288 _17_ MAC  --- 0 AODV 48 [0 ffffffff 0 800] ------- [0:255 -1:255 25 0] [0x2 6 1 [18 0] [16 4]] (REQUEST)
r 0.521250073 _1_ RTR  --- 0 AODV 48 [0 ffffffff 0 800] ------- [0:255 -1:255 25 0] [0x2 6 1 [18 0] [16 4]] (REQUEST)
r 0.521250240 _5_ RTR  --- 0 AODV 48 [0 ffffffff 0 800] ------- [0:255 -1:255 25 0] [0x2 6 1 [18 0] [16 4]] (REQUEST)
r 0.521250288 _17_ RTR  --- 0 AODV 48 [0 ffffffff 0 800] ------- [0:255 -1:255 25 0] [0x2 6 1 [18 0] [16 4]] (REQUEST)
s 0.523874027 _5_ RTR  --- 0 AODV 48 [0 ffffffff 4 800] ------- [5:255 -1:255 26 0] [0x2 5 1 [18 0] [16 4]] (REQUEST)
s 0.524000000 _16_ AGT  --- 3 cbr 1000 [0 0 0 0] ------- [16:0 18:0 32 0] [3] 0 0
r 0.524000000 _16_ RTR  --- 3 cbr 1000 [0 0 0 0] ------- [16:0 18:0 32 0] [3] 0 0
s 0.524529027 _5_ MAC  --- 0 AODV 106 [0 ffffffff 5 800] ------- [5:255 -1:255 26 0] [0x2 5 1 [18 0] [16 4]] (REQUEST)
s 0.524973699 _6_ RTR  --- 0 AODV 48 [0 ffffffff 4 800] ------- [6:255 -1:255 26 0] [0x2 5 1 [18 0] [16 4]] (REQUEST)
r 0.525377522 _4_ MAC  --- 0 AODV 48 [0 ffffffff 5 800] ------- [5:255 -1:255 26 0] [0x2 5 1 [18 0] [16 4]] (REQUEST)
r 0.525377641 _0_ MAC  --- 0 AODV 48 [0 ffffffff 5 800] ------- [5:255 -1:255 26 0] [0x2 5 1 [18 0] [16 4]] (REQUEST)
r 0.525377720 _6_ MAC  --- 0 AODV 48 [0 ffffffff 5 800] ------- [5:255 -1:255 26 0] [0x2 5 1 [18 0] [16 4]] (REQUEST)
r 0.525402522 _4_ RTR  --- 0 AODV 48 [0 ffffffff 5 800] ------- [5:255 -1:255 26 0] [0x2 5 1 [18 0] [16 4]] (REQUEST)
r 0.525402641 _0_ RTR  --- 0 AODV 48 [0 ffffffff 5 800] ------- [5:255 -1:255 26 0] [0x2 5 1 [18 0] [16 4]] (REQUEST)
r 0.525402720 _6_ RTR  --- 0 AODV 48 [0 ffffffff 5 800] ------- [5:255 -1:255 26 0] [0x2 5 1 [18 0] [16 4]] (REQUEST)
s 0.525588100 _9_ RTR  --- 0 AODV 48 [0 ffffffff 8 800] ------- [9:255 -1:255 25 0] [0x2 6 1 [18 0] [16 4]] (REQUEST)
s 0.525827720 _6_ MAC  --- 0 AODV 106 [0 ffffffff 6 800] ------- [6:255 -1:255 26 0] [0x2 5 1 [18 0] [16 4]] (REQUEST)
s 0.526023100 _9_ MAC  --- 0 AODV 106 [0 ffffffff 9 800] ------- [9:255 -1:255 25 0] [0x2 6 1 [18 0] [16 4]] (REQUEST)
r 0.526676257 _4_ MAC  --- 0 AODV 48 [0 ffffffff 6 800] ------- [6:255 -1:255 26 0] [0x2 5 1 [18 0] [16 4]] (REQUEST)
r 0.526676358 _7_ MAC  --- 0 AODV 48 [0 ffffffff 6 800] ------- [6:255 -1:255 26 0] [0x2 5 1 [18 0] [16 4]] (REQUEST)
r 0.526676414 _5_ MAC  --- 0 AODV 48 [0 ffffffff 6 800] ------- [6:255 -1:255 26 0] [0x2 5 1 [18 0] [16 4]] (REQUEST)
r 0.526701257 _4_ RTR  --- 0 AODV 48 [0 ffffffff 6 800] ------- [6:255 -1:255 26 0] [0x2 5 1 [18 0] [16 4]] (REQUEST)
r 0.526701358 _7_ RTR  --- 0 AODV 48 [0 ffffffff 6 800] ------- [6:255 -1:255 26 0] [0x2 5 1 [18 0] [16 4]] (REQUEST)
r 0.526701414 _5_ RTR  --- 0 AODV 48 [0 ffffffff 6 800] ------- [6:255 -1:255 26 0] [0x2 5 1 [18 0] [16 4]] (REQUEST)
r 0.526871728 _19_ MAC  --- 0 AODV 48 [0 ffffffff 9 800] ------- [9:255 -1:255 25 0] [0x2 6 1 [18 0] [16 4]] (REQUEST)
r 0.526871784 _8_ MAC  --- 0 AODV 48 [0 ffffffff 9 800] ------- [9:255 -1:255 25 0] [0x2 6 1 [18 0] [16 4]] (REQUEST)
r 0.526871869 _10_ MAC  --- 0 AODV 48 [0 ffffffff 9 800] ------- [9:255 -1:255 25 0] [0x2 6 1 [18 0] [16 4]] (REQUEST)
r 0.526896728 _19_ RTR  --- 0 AODV 48 [0 ffffffff 9 800] ------- [9:255 -1:255 25 0] [0x2 6 1 [18 0] [16 4]] (REQUEST)
r 0.526896784 _8_ RTR  --- 0 AODV 48 [0 ffffffff 9 800] ------- [9:255 -1:255 25 0] [0x2 6 1 [18 0] [16 4]] (REQUEST)
r 0.526896869 _10_ RTR  --- 0 AODV 48 [0 ffffffff 9 800] ------- [9:255 -1:255 25 0] [0x2 6 1 [18 0] [16 4]] (REQUEST)
s 0.528173357 _17_ RTR  --- 0 AODV 48 [0 ffffffff 0 800] ------- [17:255 -1:255 24 0] [0x2 7 1 [18 0] [16 4]] (REQUEST)
s 0.528528357 _17_ MAC  --- 0 AODV 106 [0 ffffffff 11 800] ------- [17:255 -1:255 24 0] [0x2 7 1 [18 0] [16 4]] (REQUEST)
r 0.529377020 _0_ MAC  --- 0 AODV 48 [0 ffffffff 11 800] ------- [17:255 -1:255 24 0] [0x2 7 1 [18 0] [16 4]] (REQUEST)
r 0.529377034 _18_ MAC  --- 0 AODV 48 [0 ffffffff 11 800] ------- [17:255 -1:255 24 0] [0x2 7 1 [18 0] [16 4]] (REQUEST)
r 0.529402020 _0_ RTR  --- 0 AODV 48 [0 ffffffff 11 800] ------- [17:255 -1:255 24 0] [0x2 7 1 [18 0] [16 4]] (REQUEST)
r 0.529402034 _18_ RTR  --- 0 AODV 48 [0 ffffffff 11 800] ------- [17:255 -1:255 24 0] [0x2 7 1 [18 0] [16 4]] (REQUEST)
s 0.529402034 _18_ RTR  --- 0 AODV 44 [0 0 0 0] ------- [18:255 16:255 30 17] [0x4 1 [18 4] 10.000000] (REPLY)
s 0.529557034 _18_ MAC  --- 0 ARP 86 [0 ffffffff 12 806] ------- [REQUEST 18/18 0/17]
r 0.530245712 _17_ MAC  --- 0 ARP 28 [0 ffffffff 12 806] ------- [REQUEST 18/18 0/17]
s 0.530375712 _17_ MAC  --- 0 RTS 44 [52e 12 11 0] 
r 0.530728390 _18_ MAC  --- 0 RTS 44 [52e 12 11 0] 
s 0.530738390 _18_ MAC  --- 0 CTS 38 [3f4 11 0 0] 
s 0.530952060 _10_ RTR  --- 0 AODV 48 [0 ffffffff 9 800] ------- [10:255 -1:255 24 0] [0x2 7 1 [18 0] [16 4]] (REQUEST)
r 0.531043068 _17_ MAC  --- 0 CTS 38 [3f4 11 0 0] 
s 0.531053068 _17_ MAC  --- 0 ARP 86 [13a 12 11 806] ------- [REPLY 17/17 18/18]
s 0.531247060 _10_ MAC  --- 0 AODV 106 [0 ffffffff a 800] ------- [10:255 -1:255 24 0] [0x2 7 1 [18 0] [16 4]] (REQUEST)
r 0.531741746 _18_ MAC  --- 0 ARP 28 [13a 12 11 806] ------- [REPLY 17/17 18/18]
s 0.531751746 _18_ MAC  --- 0 ACK 38 [0 11 0 0] 
s 0.532000000 _16_ AGT  --- 4 cbr 1000 [0 0 0 0] ------- [16:0 18:0 32 0] [4] 0 0
r 0.532000000 _16_ RTR  --- 4 cbr 1000 [0 0 0 0] ------- [16:0 18:0 32 0] [4] 0 0
r 0.532056423 _17_ MAC  --- 0 ACK 38 [0 11 0 0] 
r 0.532095813 _11_ MAC  --- 0 AODV 48 [0 ffffffff a 800] ------- [10:255 -1:255 24 0] [0x2 7 1 [18 0] [16 4]] (REQUEST)
r 0.532095829 _9_ MAC  --- 0 AODV 48 [0 ffffffff a 800] ------- [10:255 -1:255 24 0] [0x2 7 1 [18 0] [16 4]] (REQUEST)
r 0.532120813 _11_ RTR  --- 0 AODV 48 [0 ffffffff a 800] ------- [10:255 -1:255 24 0] [0x2 7 1 [18 0] [16 4]] (REQUEST)
r 0.532120829 _9_ RTR  --- 0 AODV 48 [0 ffffffff a 800] ------- [10:255 -1:255 24 0] [0x2 7 1 [18 0] [16 4]] (REQUEST)
s 0.532545746 _18_ MAC  --- 0 RTS 44 [5ae 11 12 0] 
s 0.532704839 _11_ RTR  --- 0 AODV 48 [0 ffffffff a 800] ------- [11:255 -1:255 23 0] [0x2 8 1 [18 0] [16 4]] (REQUEST)
r 0.532898423 _17_ MAC  --- 0 RTS 44 [5ae 11 12 0] 
s 0.532899839 _11_ MAC  --- 0 AODV 106 [0 ffffffff b 800] ------- [11:255 -1:255 23 0] [0x2 8 1 [18 0] [16 4]] (REQUEST)
s 0.532908423 _17_ MAC  --- 0 CTS 38 [474 12 0 0] 
r 0.533213101 _18_ MAC  --- 0 CTS 38 [474 12 0 0] 
s 0.533223101 _18_ MAC  --- 0 AODV 102 [13a 11 12 800] ------- [18:255 16:255 30 17] [0x4 1 [18 4] 10.000000] (REPLY)
s 0.533474848 _7_ RTR  --- 0 AODV 48 [0 ffffffff 6 800] ------- [7:255 -1:255 25 0] [0x2 6 1 [18 0] [16 4]] (REQUEST)
r 0.533748435 _12_ MAC  --- 0 AODV 48 [0 ffffffff b 800] ------- [11:255 -1:255 23 0] [0x2 8 1 [18 0] [16 4]] (REQUEST)
r 0.533748592 _10_ MAC  --- 0 AODV 48 [0 ffffffff b 800] ------- [11:255 -1:255 23 0] [0x2 8 1 [18 0] [16 4]] (REQUEST)
r 0.533773435 _12_ RTR  --- 0 AODV 48 [0 ffffffff b 800] ------- [11:255 -1:255 23 0] [0x2 8 1 [18 0] [16 4]] (REQUEST)
r 0.533773592 _10_ RTR  --- 0 AODV 48 [0 ffffffff b 800] ------- [11:255 -1:255 23 0] [0x2 8 1 [18 0] [16 4]] (REQUEST)
s 0.533889848 _7_ MAC  --- 0 AODV 106 [0 ffffffff 7 800] ------- [7:255 -1:255 25 0] [0x2 6 1 [18 0] [16 4]] (REQUEST)
r 0.534039779 _17_ MAC  --- 0 AODV 44 [13a 11 12 800] ------- [18:255 16:255 30 17] [0x4 1 [18 4] 10.000000] (REPLY)
s 0.534049779 _17_ MAC  --- 0 ACK 38 [0 12 0 0] 
r 0.534064779 _17_ RTR  --- 0 AODV 44 [13a 11 12 800] ------- [18:255 16:255 30 17] [0x4 1 [18 4] 10.000000] (REPLY)
f 0.534064779 _17_ RTR  --- 0 AODV 44 [13a 11 12 800] ------- [18:255 16:255 29 0] [0x4 2 [18 4] 10.000000] (REPLY)
r 0.534354457 _18_ MAC  --- 0 ACK 38 [0 12 0 0] 
s 0.534583779 _17_ MAC  --- 0 ARP 86 [0 ffffffff 11 806] ------- [REQUEST 17/17 0/0]
r 0.534738486 _6_ MAC  --- 0 AODV 48 [0 ffffffff 7 800] ------- [7:255 -1:255 25 0] [0x2 6 1 [18 0] [16 4]] (REQUEST)
r 0.534763486 _6_ RTR  --- 0 AODV 48 [0 ffffffff 7 800] ------- [7:255 -1:255 25 0] [0x2 6 1 [18 0] [16 4]] (REQUEST)
s 0.535004470 _12_ RTR  --- 0 AODV 48 [0 ffffffff b 800] ------- [12:255 -1:255 22 0] [0x2 9 1 [18 0] [16 4]] (REQUEST)
s 0.535079470 _12_ MAC  --- 0 AODV 106 [0 ffffffff c 800] ------- [12:255 -1:255 22 0] [0x2 9 1 [18 0] [16 4]] (REQUEST)
r 0.535272442 _0_ MAC  --- 0 ARP 28 [0 ffffffff 11 806] ------- [REQUEST 17/17 0/0]
r 0.535272457 _18_ MAC  --- 0 ARP 28 [0 ffffffff 11 806] ------- [REQUEST 17/17 0/0]
s 0.535647442 _0_ MAC  --- 0 RTS 44 [52e 11 0 0] 
r 0.535928066 _11_ MAC  --- 0 AODV 48 [0 ffffffff c 800] ------- [12:255 -1:255 22 0] [0x2 9 1 [18 0] [16 4]] (REQUEST)
r 0.535928208 _14_ MAC  --- 0 AODV 48 [0 ffffffff c 800] ------- [12:255 -1:255 22 0] [0x2 9 1 [18 0] [16 4]] (REQUEST)
r 0.535928238 _13_ MAC  --- 0 AODV 48 [0 ffffffff c 800] ------- [12:255 -1:255 22 0] [0x2 9 1 [18 0] [16 4]] (REQUEST)
s 0.535946182 _19_ RTR  --- 0 AODV 48 [0 ffffffff 9 800] ------- [19:255 -1:255 24 0] [0x2 7 1 [18 0] [16 4]] (REQUEST)
r 0.535953066 _11_ RTR  --- 0 AODV 48 [0 ffffffff c 800] ------- [12:255 -1:255 22 0] [0x2 9 1 [18 0] [16 4]] (REQUEST)
r 0.535953208 _14_ RTR  --- 0 AODV 48 [0 ffffffff c 800] ------- [12:255 -1:255 22 0] [0x2 9 1 [18 0] [16 4]] (REQUEST)
r 0.535953238 _13_ RTR  --- 0 AODV 48 [0 ffffffff c 800] ------- [12:255 -1:255 22 0] [0x2 9 1 [18 0] [16 4]] (REQUEST)
r 0.536000106 _17_ MAC  --- 0 RTS 44 [52e 11 0 0] 
s 0.536010106 _17_ MAC  --- 0 CTS 38 [3f4 0 0 0] 
s 0.536228812 _13_ RTR  --- 0 AODV 48 [0 ffffffff c 800] ------- [13:255 -1:255 21 0] [0x2 10 1 [18 0] [16 4]] (REQUEST)
s 0.536303812 _13_ MAC  --- 0 AODV 106 [0 ffffffff d 800] ------- [13:255 -1:255 21 0] [0x2 10 1 [18 0] [16 4]] (REQUEST)
r 0.536314769 _0_ MAC  --- 0 CTS 38 [3f4 0 0 0] 
s 0.536324769 _0_ MAC  --- 0 ARP 86 [13a 11 0 806] ------- [REPLY 0/0 17/17]
r 0.537013432 _17_ MAC  --- 0 ARP 28 [13a 11 0 806] ------- [REPLY 0/0 17/17]
s 0.537023432 _17_ MAC  --- 0 ACK 38 [0 0 0 0] 
r 0.537152581 _12_ MAC  --- 0 AODV 48 [0 ffffffff d 800] ------- [13:255 -1:255 21 0] [0x2 10 1 [18 0] [16 4]] (REQUEST)
r 0.537177581 _12_ RTR  --- 0 AODV 48 [0 ffffffff d 800] ------- [13:255 -1:255 21 0] [0x2 10 1 [18 0] [16 4]] (REQUEST)
r 0.537328096 _0_ MAC  --- 0 ACK 38 [0 0 0 0] 
s 0.537677432 _17_ MAC  --- 0 RTS 44 [5ae 0 11 0] 
s 0.537867144 _19_ MAC  --- 0 AODV 106 [0 ffffffff 13 800] ------- [19:255 -1:255 24 0] [0x2 7 1 [18 0] [16 4]] (REQUEST)
r 0.538030096 _0_ MAC  --- 0 RTS 44 [5ae 0 11 0] 
r 0.538715772 _9_ MAC  --- 0 AODV 48 [0 ffffffff 13 800] ------- [19:255 -1:255 24 0] [0x2 7 1 [18 0] [16 4]] (REQUEST)
r 0.538740772 _9_ RTR  --- 0 AODV 48 [0 ffffffff 13 800] ------- [19:255 -1:255 24 0] [0x2 7 1 [18 0] [16 4]] (REQUEST)
s 0.539037432 _17_ MAC  --- 0 RTS 44 [5ae 0 11 0] 
r 0.539390096 _0_ MAC  --- 0 RTS 44 [5ae 0 11 0] 
s 0.539400096 _0_ MAC  --- 0 CTS 38 [474 11 0 0] 
r 0.539704759 _17_ MAC  --- 0 CTS 38 [474 11 0 0] 
s 0.539714759 _17_ MAC  --- 0 AODV 102 [13a 0 11 800] ------- [18:255 16:255 29 0] [0x4 2 [18 4] 10.000000] (REPLY)
s 0.540000000 _16_ AGT  --- 5 cbr 1000 [0 0 0 0] ------- [16:0 18:0 32 0] [5] 0 0
r 0.540000000 _16_ RTR  --- 5 cbr 1000 [0 0 0 0] ------- [16:0 18:0 32 0] [5] 0 0
s 0.540210080 _14_ RTR  --- 0 AODV 48 [0 ffffffff c 800] ------- [14:255 -1:255 21 0] [0x2 10 1 [18 0] [16 4]] (REQUEST)
s 0.540525080 _14_ MAC  --- 0 AODV 106 [0 ffffffff e 800] ------- [14:255 -1:255 21 0] [0x2 10 1 [18 0] [16 4]] (REQUEST)
r 0.540531423 _0_ MAC  --- 0 AODV 44 [13a 0 11 800] ------- [18:255 16:255 29 0] [0x4 2 [18 4] 10.000000] (REPLY)
s 0.540541423 _0_ MAC  --- 0 ACK 38 [0 11 0 0] 
r 0.540556423 _0_ RTR  --- 0 AODV 44 [13a 0 11 800] ------- [18:255 16:255 29 0] [0x4 2 [18 4] 10.000000] (REPLY)
f 0.540556423 _0_ RTR  --- 0 AODV 44 [13a 0 11 800] ------- [18:255 16:255 28 1] [0x4 3 [18 4] 10.000000] (REPLY)
r 0.540846086 _17_ MAC  --- 0 ACK 38 [0 11 0 0] 
s 0.541015423 _0_ MAC  --- 0 ARP 86 [0 ffffffff 0 806] ------- [REQUEST 0/0 0/1]
r 0.541373818 _12_ MAC  --- 0 AODV 48 [0 ffffffff e 800] ------- [14:255 -1:255 21 0] [0x2 10 1 [18 0] [16 4]] (REQUEST)
r 0.541398818 _12_ RTR  --- 0 AODV 48 [0 ffffffff e 800] ------- [14:255 -1:255 21 0] [0x2 10 1 [18 0] [16 4]] (REQUEST)
r 0.541703870 _1_ MAC  --- 0 ARP 28 [0 ffffffff 0 806] ------- [REQUEST 0/0 0/1]
r 0.541704037 _5_ MAC  --- 0 ARP 28 [0 ffffffff 0 806] ------- [REQUEST 0/0 0/1]
r 0.541704086 _17_ MAC  --- 0 ARP 28 [0 ffffffff 0 806] ------- [REQUEST 0/0 0/1]
s 0.541878870 _1_ MAC  --- 0 RTS 44 [52e 0 1 0] 
r 0.542231318 _0_ MAC  --- 0 RTS 44 [52e 0 1 0] 
s 0.542241318 _0_ MAC  --- 0 CTS 38 [3f4 1 0 0] 
r 0.542545766 _1_ MAC  --- 0 CTS 38 [3f4 1 0 0] 
s 0.542555766 _1_ MAC  --- 0 ARP 86 [13a 0 1 806] ------- [REPLY 1/1 0/0]
r 0.543244213 _0_ MAC  --- 0 ARP 28 [13a 0 1 806] ------- [REPLY 1/1 0/0]
s 0.543254213 _0_ MAC  --- 0 ACK 38 [0 1 0 0] 
r 0.543558661 _1_ MAC  --- 0 ACK 38 [0 1 0 0] 
s 0.543948213 _0_ MAC  --- 0 RTS 44 [5ae 1 0 0] 
r 0.544300661 _1_ MAC  --- 0 RTS 44 [5ae 1 0 0] 
s 0.544310661 _1_ MAC  --- 0 CTS 38 [474 0 0 0] 
r 0.544615109 _0_ MAC  --- 0 CTS 38 [474 0 0 0] 
s 0.544625109 _0_ MAC  --- 0 AODV 102 [13a 1 0 800] ------- [18:255 16:255 28 1] [0x4 3 [18 4] 10.000000] (REPLY)
r 0.545441557 _1_ MAC  --- 0 AODV 44 [13a 1 0 800] ------- [18:255 16:255 28 1] [0x4 3 [18 4] 10.000000] (REPLY)
s 0.545451557 _1_ MAC  --- 0 ACK 38 [0 0 0 0] 
r 0.545466557 _1_ RTR  --- 0 AODV 44 [13a 1 0 800] ------- [18:255 16:255 28 1] [0x4 3 [18 4] 10.000000] (REPLY)
f 0.545466557 _1_ RTR  --- 0 AODV 44 [13a 1 0 800] ------- [18:255 16:255 27 2] [0x4 4 [18 4] 10.000000] (REPLY)
r 0.545756004 _0_ MAC  --- 0 ACK 38 [0 0 0 0] 
s 0.545905557 _1_ MAC  --- 0 ARP 86 [0 ffffffff 1 806] ------- [REQUEST 1/1 0/2]
r 0.546594004 _0_ MAC  --- 0 ARP 28 [0 ffffffff 1 806] ------- [REQUEST 1/1 0/2]
r 0.546594107 _2_ MAC  --- 0 ARP 28 [0 ffffffff 1 806] ------- [REQUEST 1/1 0/2]
r 0.546594302 _8_ MAC  --- 0 ARP 28 [0 ffffffff 1 806] ------- [REQUEST 1/1 0/2]
s 0.546849107 _2_ MAC  --- 0 RTS 44 [52e 1 2 0] 
r 0.547201658 _1_ MAC  --- 0 RTS 44 [52e 1 2 0] 
s 0.547211658 _1_ MAC  --- 0 CTS 38 [3f4 2 0 0] 
r 0.547516209 _2_ MAC  --- 0 CTS 38 [3f4 2 0 0] 
s 0.547526209 _2_ MAC  --- 0 ARP 86 [13a 1 2 806] ------- [REPLY 2/2 1/1]
s 0.548000000 _16_ AGT  --- 6 cbr 1000 [0 0 0 0] ------- [16:0 18:0 32 0] [6] 0 0
r 0.548000000 _16_ RTR  --- 6 cbr 1000 [0 0 0 0] ------- [16:0 18:0 32 0] [6] 0 0
r 0.548214759 _1_ MAC  --- 0 ARP 28 [13a 1 2 806] ------- [REPLY 2/2 1/1]
s 0.548224759 _1_ MAC  --- 0 ACK 38 [0 2 0 0] 
r 0.548529310 _2_ MAC  --- 0 ACK 38 [0 2 0 0] 
s 0.548638759 _1_ MAC  --- 0 RTS 44 [5ae 2 1 0] 
r 0.548991310 _2_ MAC  --- 0 RTS 44 [5ae 2 1 0] 
s 0.549001310 _2_ MAC  --- 0 CTS 38 [474 1 0 0] 
r 0.549305861 _1_ MAC  --- 0 CTS 38 [474 1 0 0] 
s 0.549315861 _1_ MAC  --- 0 AODV 102 [13a 2 1 800] ------- [18:255 16:255 27 2] [0x4 4 [18 4] 10.000000] (REPLY)
r 0.550132411 _2_ MAC  --- 0 AODV 44 [13a 2 1 800] ------- [18:255 16:255 27 2] [0x4 4 [18 4] 10.000000] (REPLY)
s 0.550142411 _2_ MAC  --- 0 ACK 38 [0 1 0 0] 
r 0.550157411 _2_ RTR  --- 0 AODV 44 [13a 2 1 800] ------- [18:255 16:255 27 2] [0x4 4 [18 4] 10.000000] (REPLY)
f 0.550157411 _2_ RTR  --- 0 AODV 44 [13a 2 1 800] ------- [18:255 16:255 26 3] [0x4 5 [18 4] 10.000000] (REPLY)
r 0.550446962 _1_ MAC  --- 0 ACK 38 [0 1 0 0] 
s 0.550836411 _2_ MAC  --- 0 ARP 86 [0 ffffffff 2 806] ------- [REQUEST 2/2 0/3]
r 0.551524962 _1_ MAC  --- 0 ARP 28 [0 ffffffff 2 806] ------- [REQUEST 2/2 0/3]
r 0.551524993 _8_ MAC  --- 0 ARP 28 [0 ffffffff 2 806] ------- [REQUEST 2/2 0/3]
r 0.551525010 _3_ MAC  --- 0 ARP 28 [0 ffffffff 2 806] ------- [REQUEST 2/2 0/3]
s 0.551640010 _3_ MAC  --- 0 RTS 44 [52e 2 3 0] 
r 0.551992609 _2_ MAC  --- 0 RTS 44 [52e 2 3 0] 
s 0.552002609 _2_ MAC  --- 0 CTS 38 [3f4 3 0 0] 
r 0.552307208 _3_ MAC  --- 0 CTS 38 [3f4 3 0 0] 
s 0.552317208 _3_ MAC  --- 0 ARP 86 [13a 2 3 806] ------- [REPLY 3/3 2/2]
r 0.553005806 _2_ MAC  --- 0 ARP 28 [13a 2 3 806] ------- [REPLY 3/3 2/2]
s 0.553015806 _2_ MAC  --- 0 ACK 38 [0 3 0 0] 
r 0.553320405 _3_ MAC  --- 0 ACK 38 [0 3 0 0] 
s 0.553429806 _2_ MAC  --- 0 RTS 44 [5ae 3 2 0] 
r 0.553782405 _3_ MAC  --- 0 RTS 44 [5ae 3 2 0] 
s 0.553792405 _3_ MAC  --- 0 CTS 38 [474 2 0 0] 
r 0.554097004 _2_ MAC  --- 0 CTS 38 [474 2 0 0] 
s 0.554107004 _2_ MAC  --- 0 AODV 102 [13a 3 2 800] ------- [18:255 16:255 26 3] [0x4 5 [18 4] 10.000000] (REPLY)
r 0.554923603 _3_ MAC  --- 0 AODV 44 [13a 3 2 800] ------- [18:255 16:255 26 3] [0x4 5 [18 4] 10.000000] (REPLY)
s 0.554933603 _3_ MAC  --- 0 ACK 38 [0 2 0 0] 
r 0.554948603 _3_ RTR  --- 0 AODV 44 [13a 3 2 800] ------- [18:255 16:255 26 3] [0x4 5 [18 4] 10.000000] (REPLY)
f 0.554948603 _3_ RTR  --- 0 AODV 44 [13a 3 2 800] ------- [18:255 16:255 25 15] [0x4 6 [18 4] 10.000000] (REPLY)
r 0.555238201 _2_ MAC  --- 0 ACK 38 [0 2 0 0] 
s 0.555807603 _3_ MAC  --- 0 ARP 86 [0 ffffffff 3 806] ------- [REQUEST 3/3 0/15]
s 0.556000000 _16_ AGT  --- 7 cbr 1000 [0 0 0 0] ------- [16:0 18:0 32 0] [7] 0 0
r 0.556000000 _16_ RTR  --- 7 cbr 1000 [0 0 0 0] ------- [16:0 18:0 32 0] [7] 0 0
r 0.556496201 _2_ MAC  --- 0 ARP 28 [0 ffffffff 3 806] ------- [REQUEST 3/3 0/15]
r 0.556496289 _4_ MAC  --- 0 ARP 28 [0 ffffffff 3 806] ------- [REQUEST 3/3 0/15]
r 0.556496293 _15_ MAC  --- 0 ARP 28 [0 ffffffff 3 806] ------- [REQUEST 3/3 0/15]
s 0.556991293 _15_ MAC  --- 0 RTS 44 [52e 3 f 0] 
r 0.557343984 _3_ MAC  --- 0 RTS 44 [52e 3 f 0] 
s 0.557353984 _3_ MAC  --- 0 CTS 38 [3f4 f 0 0] 
r 0.557658674 _15_ MAC  --- 0 CTS 38 [3f4 f 0 0] 
s 0.557668674 _15_ MAC  --- 0 ARP 86 [13a 3 f 806] ------- [REPLY 15/15 3/3]
r 0.558357365 _3_ MAC  --- 0 ARP 28 [13a 3 f 806] ------- [REPLY 15/15 3/3]
s 0.558367365 _3_ MAC  --- 0 ACK 38 [0 f 0 0] 
r 0.558672056 _15_ MAC  --- 0 ACK 38 [0 f 0 0] 
s 0.558881365 _3_ MAC  --- 0 RTS 44 [5ae f 3 0] 
r 0.559234056 _15_ MAC  --- 0 RTS 44 [5ae f 3 0] 
s 0.559244056 _15_ MAC  --- 0 CTS 38 [474 3 0 0] 
r 0.559548746 _3_ MAC  --- 0 CTS 38 [474 3 0 0] 
s 0.559558746 _3_ MAC  --- 0 AODV 102 [13a f 3 800] ------- [18:255 16:255 25 15] [0x4 6 [18 4] 10.000000] (REPLY)
r 0.560375437 _15_ MAC  --- 0 AODV 44 [13a f 3 800] ------- [18:255 16:255 25 15] [0x4 6 [18 4] 10.000000] (REPLY)
s 0.560385437 _15_ MAC  --- 0 ACK 38 [0 3 0 0] 
r 0.560400437 _15_ RTR  --- 0 AODV 44 [13a f 3 800] ------- [18:255 16:255 25 15] [0x4 6 [18 4] 10.000000] (REPLY)
f 0.560400437 _15_ RTR  --- 0 AODV 44 [13a f 3 800] ------- [18:255 16:255 24 16] [0x4 7 [18 4] 10.000000] (REPLY)
r 0.560690128 _3_ MAC  --- 0 ACK 38 [0 3 0 0] 
s 0.561119437 _15_ MAC  --- 0 ARP 86 [0 ffffffff f 806] ------- [REQUEST 15/15 0/16]
r 0.561808128 _3_ MAC  --- 0 ARP 28 [0 ffffffff f 806] ------- [REQUEST 15/15 0/16]
r 0.561808140 _16_ MAC  --- 0 ARP 28 [0 ffffffff f 806] ------- [REQUEST 15/15 0/16]
s 0.562163140 _16_ MAC  --- 0 RTS 44 [52e f 10 0] 
r 0.562515842 _15_ MAC  --- 0 RTS 44 [52e f 10 0] 
s 0.562525842 _15_ MAC  --- 0 CTS 38 [3f4 10 0 0] 
r 0.562830545 _16_ MAC  --- 0 CTS 38 [3f4 10 0 0] 
s 0.562840545 _16_ MAC  --- 0 ARP 86 [13a f 10 806] ------- [REPLY 16/16 15/15]
r 0.563529248 _15_ MAC  --- 0 ARP 28 [13a f 10 806] ------- [REPLY 16/16 15/15]
s 0.563539248 _15_ MAC  --- 0 ACK 38 [0 10 0 0] 
r 0.563843950 _16_ MAC  --- 0 ACK 38 [0 10 0 0] 
s 0.564000000 _16_ AGT  --- 8 cbr 1000 [0 0 0 0] ------- [16:0 18:0 32 0] [8] 0 0
r 0.564000000 _16_ RTR  --- 8 cbr 1000 [0 0 0 0] ------- [16:0 18:0 32 0] [8] 0 0
s 0.564233248 _15_ MAC  --- 0 RTS 44 [5ae 10 f 0] 
r 0.564585950 _16_ MAC  --- 0 RTS 44 [5ae 10 f 0] 
s 0.564595950 _16_ MAC  --- 0 CTS 38 [474 f 0 0] 
r 0.564900653 _15_ MAC  --- 0 CTS 38 [474 f 0 0] 
s 0.564910653 _15_ MAC  --- 0 AODV 102 [13a 10 f 800] ------- [18:255 16:255 24 16] [0x4 7 [18 4] 10.000000] (REPLY)
r 0.565727355 _16_ MAC  --- 0 AODV 44 [13a 10 f 800] ------- [18:255 16:255 24 16] [0x4 7 [18 4] 10.000000] (REPLY)
s 0.565737355 _16_ MAC  --- 0 ACK 38 [0 f 0 0] 
r 0.565752355 _16_ RTR  --- 0 AODV 44 [13a 10 f 800] ------- [18:255 16:255 24 16] [0x4 7 [18 4] 10.000000] (REPLY)
s 0.565752355 _16_ RTR  --- 0 cbr 1020 [0 0 0 0] ------- [16:0 18:0 30 15] [0] 0 0
r 0.566042058 _15_ MAC  --- 0 ACK 38 [0 f 0 0] 
s 0.566671355 _16_ MAC  --- 0 RTS 44 [242e f 10 0] 
r 0.567024058 _15_ MAC  --- 0 RTS 44 [242e f 10 0] 
s 0.567034058 _15_ MAC  --- 0 CTS 38 [22f4 10 0 0] 
r 0.567338761 _16_ MAC  --- 0 CTS 38 [22f4 10 0 0] 
s 0.567348761 _16_ MAC  --- 0 cbr 1078 [13a f 10 800] ------- [16:0 18:0 30 15] [0] 0 0
s 0.572000000 _16_ AGT  --- 9 cbr 1000 [0 0 0 0] ------- [16:0 18:0 32 0] [9] 0 0
r 0.572000000 _16_ RTR  --- 9 cbr 1000 [0 0 0 0] ------- [16:0 18:0 32 0] [9] 0 0
s 0.572000000 _16_ RTR  --- 9 cbr 1020 [0 0 0 0] ------- [16:0 18:0 30 15] [9] 0 0
s 0.575752355 _16_ RTR  --- 1 cbr 1020 [0 0 0 0] ------- [16:0 18:0 30 15] [1] 0 0
r 0.575973463 _15_ MAC  --- 0 cbr 1020 [13a f 10 800] ------- [16:0 18:0 30 15] [0] 1 0
s 0.575983463 _15_ MAC  --- 0 ACK 38 [0 10 0 0] 
r 0.575998463 _15_ RTR  --- 0 cbr 1020 [13a f 10 800] ------- [16:0 18:0 30 15] [0] 1 0
f 0.575998463 _15_ RTR  --- 0 cbr 1020 [13a f 10 800] ------- [16:0 18:0 29 3] [0] 1 0
r 0.576288166 _16_ MAC  --- 0 ACK 38 [0 10 0 0] 
s 0.576498166 _16_ MAC  --- 0 RTS 44 [242e f 10 0] 
r 0.576850869 _15_ MAC  --- 0 RTS 44 [242e f 10 0] 
s 0.576860869 _15_ MAC  --- 0 CTS 38 [22f4 10 0 0] 
r 0.577165571 _16_ MAC  --- 0 CTS 38 [22f4 10 0 0] 
s 0.577175571 _16_ MAC  --- 9 cbr 1078 [13a f 10 800] ------- [16:0 18:0 30 15] [9] 0 0
s 0.580000000 _16_ AGT  --- 10 cbr 1000 [0 0 0 0] ------- [16:0 18:0 32 0] [10] 0 0
r 0.580000000 _16_ RTR  --- 10 cbr 1000 [0 0 0 0] ------- [16:0 18:0 32 0] [10] 0 0
s 0.580000000 _16_ RTR  --- 10 cbr 1020 [0 0 0 0] ------- [16:0 18:0 30 15] [10] 0 0
s 0.585752355 _16_ RTR  --- 2 cbr 1020 [0 0 0 0] ------- [16:0 18:0 30 15] [2] 0 0
r 0.585800274 _15_ MAC  --- 9 cbr 1020 [13a f 10 800] ------- [16:0 18:0 30 15] [9] 1 0
s 0.585810274 _15_ MAC  --- 0 ACK 38 [0 10 0 0] 
r 0.585825274 _15_ RTR  --- 9 cbr 1020 [13a f 10 800] ------- [16:0 18:0 30 15] [9] 1 0
f 0.585825274 _15_ RTR  --- 9 cbr 1020 [13a f 10 800] ------- [16:0 18:0 29 3] [9] 1 0
r 0.586114977 _16_ MAC  --- 0 ACK 38 [0 10 0 0] 
s 0.586184274 _15_ MAC  --- 0 RTS 44 [242e 3 f 0] 
r 0.586536965 _3_ MAC  --- 0 RTS 44 [242e 3 f 0] 
s 0.586546965 _3_ MAC  --- 0 CTS 38 [22f4 f 0 0] 
r 0.586851655 _15_ MAC  --- 0 CTS 38 [22f4 f 0 0] 
s 0.586861655 _15_ MAC  --- 0 cbr 1078 [13a 3 f 800] ------- [16:0 18:0 29 3] [0] 1 0
s 0.588000000 _16_ AGT  --- 11 cbr 1000 [0 0 0 0] ------- [16:0 18:0 32 0] [11] 0 0
r 0.588000000 _16_ RTR  --- 11 cbr 1000 [0 0 0 0] ------- [16:0 18:0 32 0] [11] 0 0
s 0.588000000 _16_ RTR  --- 11 cbr 1020 [0 0 0 0] ------- [16:0 18:0 30 15] [11] 0 0
r 0.595486346 _3_ MAC  --- 0 cbr 1020 [13a 3 f 800] ------- [16:0 18:0 29 3] [0] 2 0
s 0.595496346 _3_ MAC  --- 0 ACK 38 [0 f 0 0] 
r 0.595511346 _3_ RTR  --- 0 cbr 1020 [13a 3 f 800] ------- [16:0 18:0 29 3] [0] 2 0
f 0.595511346 _3_ RTR  --- 0 cbr 1020 [13a 3 f 800] ------- [16:0 18:0 28 2] [0] 2 0
s 0.595752355 _16_ RTR  --- 3 cbr 1020 [0 0 0 0] ------- [16:0 18:0 30 15] [3] 0 0
r 0.595801036 _15_ MAC  --- 0 ACK 38 [0 f 0 0] 
s 0.595971036 _15_ MAC  --- 0 RTS 44 [242e 3 f 0] 
s 0.596000000 _16_ AGT  --- 12 cbr 1000 [0 0 0 0] ------- [16:0 18:0 32 0] [12] 0 0
r 0.596000000 _16_ RTR  --- 12 cbr 1000 [0 0 0 0] ------- [16:0 18:0 32 0] [12] 0 0