n -t * -s 0  -x 1561 -y 1095 -Z 0 -z 20  -v circle -c black
n -t * -s 1  -x 1362 -y 816 -Z 0 -z 20  -v circle -c black
n -t * -s 2  -x 1773 -y 791 -Z 0 -z 20  -v circle -c black
n -t * -s 3  -x 1575 -y 859 -Z 0 -z 20  -v circle -c black
n -t * -s 4  -x 1941 -y 1129 -Z 0 -z 20  -v circle -c black
n -t * -s 5  -x 1214 -y 1239 -Z 0 -z 20  -v circle -c black
n -t * -s 6  -x 964 -y 871 -Z 0 -z 20  -v circle -c black
n -t * -s 7  -x 1166 -y 909 -Z 0 -z 20  -v circle -c black
n -t * -s 8  -x 1250 -y 1100 -Z 0 -z 20  -v circle -c black
n -t * -s 9  -x 1798 -y 1018 -Z 0 -z 20  -v circle -c black
n -t * -s 10  -x 2193 -y 802 -Z 0 -z 20  -v circle -c black
n -t * -s 11  -x 1912 -y 479 -Z 0 -z 20  -v circle -c black
n -t * -s 12  -x 1984 -y 779 -Z 0 -z 20  -v circle -c black
n -t * -s 13  -x 2003 -y 552 -Z 0 -z 20  -v circle -c black
n -t * -s 14  -x 2209 -y 584 -Z 0 -z 20  -v circle -c black
n -t * -s 15  -x 2103 -y 684 -Z 0 -z 20  -v circle -c black
n -t * -s 16  -x 1562 -y 709 -Z 0 -z 20  -v circle -c black
n -t * -s 17  -x 1534 -y 502 -Z 0 -z 20  -v circle -c black
n -t * -s 18  -x 1737 -y 491 -Z 0 -z 20  -v circle -c black
n -t * -s 19  -x 1732 -y 600 -Z 0 -z 20  -v circle -c black
V -t * -v 1.0a5 -a 0
W -t * -x 4044 -y 100
A -t * -n 1 -p 0 -o 0x7fffffff -c 30 -a 1
A -t * -h 1 -m 1073741823 -s 0
+ -t 0.000000000 -s 5 -d -1 -p cbr -e 1000 -c 2 -a 0 -i 0 -k AGT 
- -t 0.000000000 -s 5 -d -1 -p cbr -e 1000 -c 2 -a 0 -i 0 -k AGT
h -t 0.000000000 -s 5 -d -1 -p cbr -e 1000 -c 2 -a 0 -i 0 -k AGT
r -t 0.000000000 -s 5 -d -1 -p cbr -e 1000 -c 2 -a 0 -i 0 -k AGT
+ -t 0.000000000 -s 6 -d -1 -p cbr -e 1000 -c 2 -a 0 -i 1 -k AGT 
- -t 0.000000000 -s 6 -d -1 -p cbr -e 1000 -c 2 -a 0 -i 1 -k AGT
h -t 0.000000000 -s 6 -d -1 -p cbr -e 1000 -c 2 -a 0 -i 1 -k AGT
r -t 0.000000000 -s 6 -d -1 -p cbr -e 1000 -c 2 -a 0 -i 1 -k AGT
+ -t 0.000000000 -s 4 -d -1 -p cbr -e 1000 -c 2 -a 0 -i 2 -k AGT 
- -t 0.000000000 -s 4 -d -1 -p cbr -e 1000 -c 2 -a 0 -i 2 -k AGT
h -t 0.000000000 -s 4 -d -1 -p cbr -e 1000 -c 2 -a 0 -i 2 -k AGT
+ -t 0.000000000 -s 17 -d -1 -p cbr -e 1000 -c 2 -a 0 -i 3 -k AGT 
- -t 0.000000000 -s 17 -d -1 -p cbr -e 1000 -c 2 -a 0 -i 3 -k AGT
h -t 0.000000000 -s 17 -d -1 -p cbr -e 1000 -c 2 -a 0 -i 3 -k AGT
+ -t 0.000000000 -s 8 -d -1 -p cbr -e 1000 -c 2 -a 0 -i 4 -k AGT 
- -t 0.000000000 -s 8 -d -1 -p cbr -e 1000 -c 2 -a 0 -i 4 -k AGT
h -t 0.000000000 -s 8 -d -1 -p cbr -e 1000 -c 2 -a 0 -i 4 -k AGT
+ -t 0.000000000 -s 10 -d -1 -p cbr -e 1000 -c 2 -a 0 -i 5 -k AGT 
- -t 0.000000000 -s 10 -d -1 -p cbr -e 1000 -c 2 -a 0 -i 5 -k AGT
h -t 0.000000000 -s 10 -d -1 -p cbr -e 1000 -c 2 -a 0 -i 5 -k AGT
+ -t 0.000000000 -s 18 -d -1 -p cbr -e 1000 -c 2 -a 0 -i 6 -k AGT 
- -t 0.000000000 -s 18 -d -1 -p cbr -e 1000 -c 2 -a 0 -i 6 -k AGT
h -t 0.000000000 -s 18 -d -1 -p cbr -e 1000 -c 2 -a 0 -i 6 -k AGT
r -t 0.000000000 -s 18 -d -1 -p cbr -e 1000 -c 2 -a 0 -i 6 -k AGT
+ -t 0.000000000 -s 11 -d -1 -p cbr -e 1000 -c 2 -a 0 -i 7 -k AGT 
- -t 0.000000000 -s 11 -d -1 -p cbr -e 1000 -c 2 -a 0 -i 7 -k AGT
h -t 0.000000000 -s 11 -d -1 -p cbr -e 1000 -c 2 -a 0 -i 7 -k AGT
+ -t 0.000000000 -s 14 -d -1 -p cbr -e 1000 -c 2 -a 0 -i 8 -k AGT 
- -t 0.000000000 -s 14 -d -1 -p cbr -e 1000 -c 2 -a 0 -i 8 -k AGT
h -t 0.000000000 -s 14 -d -1 -p cbr -e 1000 -c 2 -a 0 -i 8 -k AGT
+ -t 0.000000000 -s 19 -d -1 -p cbr -e 1000 -c 2 -a 0 -i 9 -k AGT 
- -t 0.000000000 -s 19 -d -1 -p cbr -e 1000 -c 2 -a 0 -i 9 -k AGT
h -t 0.000000000 -s 19 -d -1 -p cbr -e 1000 -c 2 -a 0 -i 9 -k AGT
+ -t 0.000000000 -s 4 -d -1 -p AODV -e 48 -c 2 -a 0 -i 0 -k RTR 
- -t 0.000000000 -s 4 -d -1 -p AODV -e 48 -c 2 -a 0 -i 0 -k RTR
h -t 0.000000000 -s 4 -d -1 -p AODV -e 48 -c 2 -a 0 -i 0 -k RTR
+ -t 0.000000000 -s 17 -d -1 -p AODV -e 48 -c 2 -a 0 -i 0 -k RTR 
- -t 0.000000000 -s 17 -d -1 -p AODV -e 48 -c 2 -a 0 -i 0 -k RTR
h -t 0.000000000 -s 17 -d -1 -p AODV -e 48 -c 2 -a 0 -i 0 -k RTR
+ -t 0.000000000 -s 8 -d -1 -p AODV -e 48 -c 2 -a 0 -i 0 -k RTR 
- -t 0.000000000 -s 8 -d -1 -p AODV -e 48 -c 2 -a 0 -i 0 -k RTR
h -t 0.000000000 -s 8 -d -1 -p AODV -e 48 -c 2 -a 0 -i 0 -k RTR
+ -t 0.000000000 -s 10 -d -1 -p AODV -e 48 -c 2 -a 0 -i 0 -k RTR 
- -t 0.000000000 -s 10 -d -1 -p AODV -e 48 -c 2 -a 0 -i 0 -k RTR
h -t 0.000000000 -s 10 -d -1 -p AODV -e 48 -c 2 -a 0 -i 0 -k RTR
+ -t 0.000000000 -s 11 -d -1 -p AODV -e 48 -c 2 -a 0 -i 0 -k RTR 
- -t 0.000000000 -s 11 -d -1 -p AODV -e 48 -c 2 -a 0 -i 0 -k RTR
h -t 0.000000000 -s 11 -d -1 -p AODV -e 48 -c 2 -a 0 -i 0 -k RTR
+ -t 0.000000000 -s 14 -d -1 -p AODV -e 48 -c 2 -a 0 -i 0 -k RTR 
- -t 0.000000000 -s 14 -d -1 -p AODV -e 48 -c 2 -a 0 -i 0 -k RTR
h -t 0.000000000 -s 14 -d -1 -p AODV -e 48 -c 2 -a 0 -i 0 -k RTR
+ -t 0.000000000 -s 19 -d -1 -p AODV -e 48 -c 2 -a 0 -i 0 -k RTR 
- -t 0.000000000 -s 19 -d -1 -p AODV -e 48 -c 2 -a 0 -i 0 -k RTR
h -t 0.000000000 -s 19 -d -1 -p AODV -e 48 -c 2 -a 0 -i 0 -k RTR
+ -t 0.000075000 -s 14 -d -1 -p AODV -e 106 -c 2 -a 0 -i 0 -k MAC 
- -t 0.000075000 -s 14 -d -1 -p AODV -e 106 -c 2 -a 0 -i 0 -k MAC
h -t 0.000075000 -s 14 -d -1 -p AODV -e 106 -c 2 -a 0 -i 0 -k MAC
+ -t 0.000115000 -s 17 -d -1 -p AODV -e 106 -c 2 -a 0 -i 0 -k MAC 
- -t 0.000115000 -s 17 -d -1 -p AODV -e 106 -c 2 -a 0 -i 0 -k MAC
h -t 0.000115000 -s 17 -d -1 -p AODV -e 106 -c 2 -a 0 -i 0 -k MAC
+ -t 0.000535000 -s 4 -d -1 -p AODV -e 106 -c 2 -a 0 -i 0 -k MAC 
- -t 0.000535000 -s 4 -d -1 -p AODV -e 106 -c 2 -a 0 -i 0 -k MAC
h -t 0.000535000 -s 4 -d -1 -p AODV -e 106 -c 2 -a 0 -i 0 -k MAC
+ -t 0.000635000 -s 8 -d -1 -p AODV -e 106 -c 2 -a 0 -i 0 -k MAC 
- -t 0.000635000 -s 8 -d -1 -p AODV -e 106 -c 2 -a 0 -i 0 -k MAC
h -t 0.000635000 -s 8 -d -1 -p AODV -e 106 -c 2 -a 0 -i 0 -k MAC
r -t 0.000923486 -s 15 -d -1 -p AODV -e 48 -c 2 -a 0 -i 0 -k MAC
r -t 0.000923695 -s 13 -d -1 -p AODV -e 48 -c 2 -a 0 -i 0 -k MAC
r -t 0.000923729 -s 10 -d -1 -p AODV -e 48 -c 2 -a 0 -i 0 -k MAC
r -t 0.000948486 -s 15 -d -1 -p AODV -e 48 -c 2 -a 0 -i 0 -k RTR
r -t 0.000948695 -s 13 -d -1 -p AODV -e 48 -c 2 -a 0 -i 0 -k RTR
r -t 0.000948729 -s 10 -d -1 -p AODV -e 48 -c 2 -a 0 -i 0 -k RTR
d -t 0.000963678 -s 18 -d -1 -p AODV -e 106 -c 2 -a 0 -i 0 -k MAC
r -t 0.000963696 -s 16 -d -1 -p AODV -e 48 -c 2 -a 0 -i 0 -k MAC
d -t 0.000963736 -s 19 -d -1 -p AODV -e 106 -c 2 -a 0 -i 0 -k MAC
r -t 0.000988696 -s 16 -d -1 -p AODV -e 48 -c 2 -a 0 -i 0 -k RTR
r -t 0.001383603 -s 9 -d -1 -p AODV -e 48 -c 2 -a 0 -i 0 -k MAC
r -t 0.001408603 -s 9 -d -1 -p AODV -e 48 -c 2 -a 0 -i 0 -k RTR
r -t 0.001483479 -s 5 -d -1 -p AODV -e 48 -c 2 -a 0 -i 0 -k MAC
d -t 0.001483696 -s 7 -d -1 -p AODV -e 106 -c 2 -a 0 -i 0 -k MAC
r -t 0.001508479 -s 5 -d -1 -p AODV -e 48 -c 2 -a 0 -i 0 -k RTR
+ -t 0.001537736 -s 19 -d -1 -p AODV -e 106 -c 2 -a 0 -i 0 -k MAC 
- -t 0.001537736 -s 19 -d -1 -p AODV -e 106 -c 2 -a 0 -i 0 -k MAC
h -t 0.001537736 -s 19 -d -1 -p AODV -e 106 -c 2 -a 0 -i 0 -k MAC
r -t 0.002386100 -s 18 -d -1 -p AODV -e 48 -c 2 -a 0 -i 0 -k MAC
r -t 0.002386388 -s 2 -d -1 -p AODV -e 48 -c 2 -a 0 -i 0 -k MAC
r -t 0.002386410 -s 16 -d -1 -p AODV -e 48 -c 2 -a 0 -i 0 -k MAC
r -t 0.002386459 -s 11 -d -1 -p AODV -e 48 -c 2 -a 0 -i 0 -k MAC
r -t 0.002386473 -s 17 -d -1 -p AODV -e 48 -c 2 -a 0 -i 0 -k MAC
r -t 0.002411100 -s 18 -d -1 -p AODV -e 48 -c 2 -a 0 -i 0 -k RTR
r -t 0.002411388 -s 2 -d -1 -p AODV -e 48 -c 2 -a 0 -i 0 -k RTR
r -t 0.002411410 -s 16 -d -1 -p AODV -e 48 -c 2 -a 0 -i 0 -k RTR
r -t 0.002411459 -s 11 -d -1 -p AODV -e 48 -c 2 -a 0 -i 0 -k RTR
r -t 0.002411473 -s 17 -d -1 -p AODV -e 48 -c 2 -a 0 -i 0 -k RTR
+ -t 0.002596459 -s 11 -d -1 -p AODV -e 106 -c 2 -a 0 -i 0 -k MAC 
- -t 0.002596459 -s 11 -d -1 -p AODV -e 106 -c 2 -a 0 -i 0 -k MAC
h -t 0.002596459 -s 11 -d -1 -p AODV -e 106 -c 2 -a 0 -i 0 -k MAC
+ -t 0.002630150 -s 16 -d -1 -p AODV -e 48 -c 2 -a 0 -i 0 -k RTR 
- -t 0.002630150 -s 16 -d -1 -p AODV -e 48 -c 2 -a 0 -i 0 -k RTR
h -t 0.002630150 -s 16 -d -1 -p AODV -e 48 -c 2 -a 0 -i 0 -k RTR
+ -t 0.003294503 -s 15 -d -1 -p AODV -e 48 -c 2 -a 0 -i 0 -k RTR 
- -t 0.003294503 -s 15 -d -1 -p AODV -e 48 -c 2 -a 0 -i 0 -k RTR
h -t 0.003294503 -s 15 -d -1 -p AODV -e 48 -c 2 -a 0 -i 0 -k RTR
+ -t 0.003352776 -s 2 -d -1 -p AODV -e 48 -c 2 -a 0 -i 0 -k RTR 
- -t 0.003352776 -s 2 -d -1 -p AODV -e 48 -c 2 -a 0 -i 0 -k RTR
h -t 0.003352776 -s 2 -d -1 -p AODV -e 48 -c 2 -a 0 -i 0 -k RTR
r -t 0.003444848 -s 13 -d -1 -p AODV -e 48 -c 2 -a 0 -i 0 -k MAC
r -t 0.003445044 -s 18 -d -1 -p AODV -e 48 -c 2 -a 0 -i 0 -k MAC
r -t 0.003445182 -s 19 -d -1 -p AODV -e 48 -c 2 -a 0 -i 0 -k MAC
r -t 0.003469848 -s 13 -d -1 -p AODV -e 48 -c 2 -a 0 -i 0 -k RTR
r -t 0.003470044 -s 18 -d -1 -p AODV -e 48 -c 2 -a 0 -i 0 -k RTR
r -t 0.003470182 -s 19 -d -1 -p AODV -e 48 -c 2 -a 0 -i 0 -k RTR
+ -t 0.003879855 -s 16 -d -1 -p AODV -e 106 -c 2 -a 0 -i 0 -k MAC 
- -t 0.003879855 -s 16 -d -1 -p AODV -e 106 -c 2 -a 0 -i 0 -k MAC
h -t 0.003879855 -s 16 -d -1 -p AODV -e 106 -c 2 -a 0 -i 0 -k MAC
+ -t 0.004039519 -s 10 -d -1 -p AODV -e 48 -c 2 -a 0 -i 0 -k RTR 
- -t 0.004039519 -s 10 -d -1 -p AODV -e 48 -c 2 -a 0 -i 0 -k RTR
h -t 0.004039519 -s 10 -d -1 -p AODV -e 48 -c 2 -a 0 -i 0 -k RTR
+ -t 0.004159153 -s 18 -d -1 -p AODV -e 48 -c 2 -a 0 -i 0 -k RTR 
- -t 0.004159153 -s 18 -d -1 -p AODV -e 48 -c 2 -a 0 -i 0 -k RTR
h -t 0.004159153 -s 18 -d -1 -p AODV -e 48 -c 2 -a 0 -i 0 -k RTR
+ -t 0.004159886 -s 10 -d -1 -p AODV -e 106 -c 2 -a 0 -i 0 -k MAC 
- -t 0.004159886 -s 10 -d -1 -p AODV -e 106 -c 2 -a 0 -i 0 -k MAC
h -t 0.004159886 -s 10 -d -1 -p AODV -e 106 -c 2 -a 0 -i 0 -k MAC
r -t 0.004728357 -s 3 -d -1 -p AODV -e 48 -c 2 -a 0 -i 0 -k MAC
r -t 0.004728529 -s 19 -d -1 -p AODV -e 48 -c 2 -a 0 -i 0 -k MAC
r -t 0.004728552 -s 17 -d -1 -p AODV -e 48 -c 2 -a 0 -i 0 -k MAC
r -t 0.004728610 -s 2 -d -1 -p AODV -e 48 -c 2 -a 0 -i 0 -k MAC
r -t 0.004728611 -s 1 -d -1 -p AODV -e 48 -c 2 -a 0 -i 0 -k MAC
r -t 0.004753357 -s 3 -d -1 -p AODV -e 48 -c 2 -a 0 -i 0 -k RTR
r -t 0.004753529 -s 19 -d -1 -p AODV -e 48 -c 2 -a 0 -i 0 -k RTR
r -t 0.004753552 -s 17 -d -1 -p AODV -e 48 -c 2 -a 0 -i 0 -k RTR
r -t 0.004753610 -s 2 -d -1 -p AODV -e 48 -c 2 -a 0 -i 0 -k RTR
r -t 0.004753611 -s 1 -d -1 -p AODV -e 48 -c 2 -a 0 -i 0 -k RTR
+ -t 0.004753611 -s 1 -d 16 -p AODV -e 44 -c 2 -a 0 -i 0 -k RTR 
- -t 0.004753611 -s 1 -d 16 -p AODV -e 44 -c 2 -a 0 -i 0 -k RTR
h -t 0.004753611 -s 1 -d 16 -p AODV -e 44 -c 2 -a 0 -i 0 -k RTR
+ -t 0.004888611 -s 1 -d -1 -p ARP -e 86 -c 2 -a 0 -i 0 -k MAC 
- -t 0.004888611 -s 1 -d -1 -p ARP -e 86 -c 2 -a 0 -i 0 -k MAC
h -t 0.004888611 -s 1 -d -1 -p ARP -e 86 -c 2 -a 0 -i 0 -k MAC
+ -t 0.004992352 -s 17 -d -1 -p AODV -e 48 -c 2 -a 0 -i 0 -k RTR 
- -t 0.004992352 -s 17 -d -1 -p AODV -e 48 -c 2 -a 0 -i 0 -k RTR
h -t 0.004992352 -s 17 -d -1 -p AODV -e 48 -c 2 -a 0 -i 0 -k RTR
d -t 0.005008381 -s 15 -d -1 -p AODV -e 106 -c 2 -a 0 -i 0 -k MAC
d -t 0.005008587 -s 12 -d -1 -p AODV -e 106 -c 2 -a 0 -i 0 -k MAC
r -t 0.005008615 -s 14 -d -1 -p AODV -e 48 -c 2 -a 0 -i 0 -k MAC
r -t 0.005033615 -s 14 -d -1 -p AODV -e 48 -c 2 -a 0 -i 0 -k RTR
+ -t 0.005337886 -s 10 -d -1 -p AODV -e 106 -c 2 -a 0 -i 0 -k MAC 
- -t 0.005337886 -s 10 -d -1 -p AODV -e 106 -c 2 -a 0 -i 0 -k MAC
h -t 0.005337886 -s 10 -d -1 -p AODV -e 106 -c 2 -a 0 -i 0 -k MAC
r -t 0.005577335 -s 7 -d -1 -p ARP -e 28 -c 2 -a 0 -i 0 -k MAC
r -t 0.005577336 -s 3 -d -1 -p ARP -e 28 -c 2 -a 0 -i 0 -k MAC
r -t 0.005577368 -s 16 -d -1 -p ARP -e 28 -c 2 -a 0 -i 0 -k MAC
+ -t 0.005641777 -s 19 -d -1 -p AODV -e 48 -c 2 -a 0 -i 0 -k RTR 
- -t 0.005641777 -s 19 -d -1 -p AODV -e 48 -c 2 -a 0 -i 0 -k RTR
h -t 0.005641777 -s 19 -d -1 -p AODV -e 48 -c 2 -a 0 -i 0 -k RTR
+ -t 0.005852368 -s 16 -d -1 -p RTS -e 44 -c 2 -a 0 -i 0 -k MAC 
- -t 0.005852368 -s 16 -d -1 -p RTS -e 44 -c 2 -a 0 -i 0 -k MAC
h -t 0.005852368 -s 16 -d -1 -p RTS -e 44 -c 2 -a 0 -i 0 -k MAC
+ -t 0.005898870 -s 11 -d -1 -p AODV -e 48 -c 2 -a 0 -i 0 -k RTR 
- -t 0.005898870 -s 11 -d -1 -p AODV -e 48 -c 2 -a 0 -i 0 -k RTR
h -t 0.005898870 -s 11 -d -1 -p AODV -e 48 -c 2 -a 0 -i 0 -k RTR
r -t 0.006186381 -s 15 -d -1 -p AODV -e 48 -c 2 -a 0 -i 0 -k MAC
r -t 0.006186587 -s 12 -d -1 -p AODV -e 48 -c 2 -a 0 -i 0 -k MAC
r -t 0.006186615 -s 14 -d -1 -p AODV -e 48 -c 2 -a 0 -i 0 -k MAC
r -t 0.006205124 -s 1 -d -1 -p RTS -e 44 -c 2 -a 0 -i 0 -k MAC
r -t 0.006211381 -s 15 -d -1 -p AODV -e 48 -c 2 -a 0 -i 0 -k RTR
r -t 0.006211587 -s 12 -d -1 -p AODV -e 48 -c 2 -a 0 -i 0 -k RTR
r -t 0.006211615 -s 14 -d -1 -p AODV -e 48 -c 2 -a 0 -i 0 -k RTR
+ -t 0.006215124 -s 1 -d -1 -p CTS -e 38 -c 2 -a 0 -i 0 -k MAC 
- -t 0.006215124 -s 1 -d -1 -p CTS -e 38 -c 2 -a 0 -i 0 -k MAC
h -t 0.006215124 -s 1 -d -1 -p CTS -e 38 -c 2 -a 0 -i 0 -k MAC
+ -t 0.006319671 -s 12 -d -1 -p AODV -e 48 -c 2 -a 0 -i 0 -k RTR 
- -t 0.006319671 -s 12 -d -1 -p AODV -e 48 -c 2 -a 0 -i 0 -k RTR
h -t 0.006319671 -s 12 -d -1 -p AODV -e 48 -c 2 -a 0 -i 0 -k RTR
r -t 0.006519880 -s 16 -d -1 -p CTS -e 38 -c 2 -a 0 -i 0 -k MAC
+ -t 0.006529880 -s 16 -d -1 -p ARP -e 86 -c 2 -a 0 -i 0 -k MAC 
- -t 0.006529880 -s 16 -d -1 -p ARP -e 86 -c 2 -a 0 -i 0 -k MAC
h -t 0.006529880 -s 16 -d -1 -p ARP -e 86 -c 2 -a 0 -i 0 -k MAC
+ -t 0.006907268 -s 14 -d -1 -p AODV -e 48 -c 2 -a 0 -i 0 -k RTR 
- -t 0.006907268 -s 14 -d -1 -p AODV -e 48 -c 2 -a 0 -i 0 -k RTR
h -t 0.006907268 -s 14 -d -1 -p AODV -e 48 -c 2 -a 0 -i 0 -k RTR
r -t 0.007218636 -s 1 -d -1 -p ARP -e 28 -c 2 -a 0 -i 0 -k MAC
+ -t 0.007228636 -s 1 -d -1 -p ACK -e 38 -c 2 -a 0 -i 0 -k MAC 
- -t 0.007228636 -s 1 -d -1 -p ACK -e 38 -c 2 -a 0 -i 0 -k MAC
h -t 0.007228636 -s 1 -d -1 -p ACK -e 38 -c 2 -a 0 -i 0 -k MAC
+ -t 0.007337346 -s 13 -d -1 -p AODV -e 48 -c 2 -a 0 -i 0 -k RTR 
- -t 0.007337346 -s 13 -d -1 -p AODV -e 48 -c 2 -a 0 -i 0 -k RTR
h -t 0.007337346 -s 13 -d -1 -p AODV -e 48 -c 2 -a 0 -i 0 -k RTR
+ -t 0.007482268 -s 14 -d -1 -p AODV -e 106 -c 2 -a 0 -i 0 -k MAC 
- -t 0.007482268 -s 14 -d -1 -p AODV -e 106 -c 2 -a 0 -i 0 -k MAC
h -t 0.007482268 -s 14 -d -1 -p AODV -e 106 -c 2 -a 0 -i 0 -k MAC
r -t 0.007533392 -s 16 -d -1 -p ACK -e 38 -c 2 -a 0 -i 0 -k MAC
+ -t 0.007809280 -s 9 -d -1 -p AODV -e 48 -c 2 -a 0 -i 0 -k RTR 
- -t 0.007809280 -s 9 -d -1 -p AODV -e 48 -c 2 -a 0 -i 0 -k RTR
h -t 0.007809280 -s 9 -d -1 -p AODV -e 48 -c 2 -a 0 -i 0 -k RTR
+ -t 0.007882636 -s 1 -d -1 -p RTS -e 44 -c 2 -a 0 -i 0 -k MAC 
- -t 0.007882636 -s 1 -d -1 -p RTS -e 44 -c 2 -a 0 -i 0 -k MAC
h -t 0.007882636 -s 1 -d -1 -p RTS -e 44 -c 2 -a 0 -i 0 -k MAC
+ -t 0.008000000 -s 5 -d -1 -p cbr -e 1000 -c 2 -a 0 -i 10 -k AGT 
- -t 0.008000000 -s 5 -d -1 -p cbr -e 1000 -c 2 -a 0 -i 10 -k AGT
h -t 0.008000000 -s 5 -d -1 -p cbr -e 1000 -c 2 -a 0 -i 10 -k AGT
r -t 0.008000000 -s 5 -d -1 -p cbr -e 1000 -c 2 -a 0 -i 10 -k AGT
+ -t 0.008000000 -s 6 -d -1 -p cbr -e 1000 -c 2 -a 0 -i 11 -k AGT 
- -t 0.008000000 -s 6 -d -1 -p cbr -e 1000 -c 2 -a 0 -i 11 -k AGT
h -t 0.008000000 -s 6 -d -1 -p cbr -e 1000 -c 2 -a 0 -i 11 -k AGT
r -t 0.008000000 -s 6 -d -1 -p cbr -e 1000 -c 2 -a 0 -i 11 -k AGT
+ -t 0.008000000 -s 4 -d -1 -p cbr -e 1000 -c 2 -a 0 -i 12 -k AGT 
- -t 0.008000000 -s 4 -d -1 -p cbr -e 1000 -c 2 -a 0 -i 12 -k AGT
h -t 0.008000000 -s 4 -d -1 -p cbr -e 1000 -c 2 -a 0 -i 12 -k AGT
+ -t 0.008000000 -s 17 -d -1 -p cbr -e 1000 -c 2 -a 0 -i 13 -k AGT 
- -t 0.008000000 -s 17 -d -1 -p cbr -e 1000 -c 2 -a 0 -i 13 -k AGT
h -t 0.008000000 -s 17 -d -1 -p cbr -e 1000 -c 2 -a 0 -i 13 -k AGT
+ -t 0.008000000 -s 8 -d -1 -p cbr -e 1000 -c 2 -a 0 -i 14 -k AGT 
- -t 0.008000000 -s 8 -d -1 -p cbr -e 1000 -c 2 -a 0 -i 14 -k AGT
h -t 0.008000000 -s 8 -d -1 -p cbr -e 1000 -c 2 -a 0 -i 14 -k AGT
+ -t 0.008000000 -s 10 -d -1 -p cbr -e 1000 -c 2 -a 0 -i 15 -k AGT 
- -t 0.008000000 -s 10 -d -1 -p cbr -e 1000 -c 2 -a 0 -i 15 -k AGT
h -t 0.008000000 -s 10 -d -1 -p cbr -e 1000 -c 2 -a 0 -i 15 -k AGT
+ -t 0.008000000 -s 18 -d -1 -p cbr -e 1000 -c 2 -a 0 -i 16 -k AGT 
- -t 0.008000000 -s 18 -d -1 -p cbr -e 1000 -c 2 -a 0 -i 16 -k AGT
h -t 0.008000000 -s 18 -d -1 -p cbr -e 1000 -c 2 -a 0 -i 16 -k AGT
r -t 0.008000000 -s 18 -d -1 -p cbr -e 1000 -c 2 -a 0 -i 16 -k AGT
+ -t 0.008000000 -s 11 -d -1 -p cbr -e 1000 -c 2 -a 0 -i 17 -k AGT 
- -t 0.008000000 -s 11 -d -1 -p cbr -e 1000 -c 2 -a 0 -i 17 -k AGT
h -t 0.008000000 -s 11 -d -1 -p cbr -e 1000 -c 2 -a 0 -i 17 -k AGT
+ -t 0.008000000 -s 14 -d -1 -p cbr -e 1000 -c 2 -a 0 -i 18 -k AGT 
- -t 0.008000000 -s 14 -d -1 -p cbr -e 1000 -c 2 -a 0 -i 18 -k AGT
h -t 0.008000000 -s 14 -d -1 -p cbr -e 1000 -c 2 -a 0 -i 18 -k AGT
+ -t 0.008000000 -s 19 -d -1 -p cbr -e 1000 -c 2 -a 0 -i 19 -k AGT 
- -t 0.008000000 -s 19 -d -1 -p cbr -e 1000 -c 2 -a 0 -i 19 -k AGT
h -t 0.008000000 -s 19 -d -1 -p cbr -e 1000 -c 2 -a 0 -i 19 -k AGT
r -t 0.008235392 -s 16 -d -1 -p RTS -e 44 -c 2 -a 0 -i 0 -k MAC
+ -t 0.008245392 -s 16 -d -1 -p CTS -e 38 -c 2 -a 0 -i 0 -k MAC 
- -t 0.008245392 -s 16 -d -1 -p CTS -e 38 -c 2 -a 0 -i 0 -k MAC
h -t 0.008245392 -s 16 -d -1 -p CTS -e 38 -c 2 -a 0 -i 0 -k MAC
r -t 0.008330753 -s 15 -d -1 -p AODV -e 48 -c 2 -a 0 -i 0 -k MAC
r -t 0.008330962 -s 13 -d -1 -p AODV -e 48 -c 2 -a 0 -i 0 -k MAC
r -t 0.008330996 -s 10 -d -1 -p AODV -e 48 -c 2 -a 0 -i 0 -k MAC
r -t 0.008355753 -s 15 -d -1 -p AODV -e 48 -c 2 -a 0 -i 0 -k RTR
r -t 0.008355962 -s 13 -d -1 -p AODV -e 48 -c 2 -a 0 -i 0 -k RTR
r -t 0.008355996 -s 10 -d -1 -p AODV -e 48 -c 2 -a 0 -i 0 -k RTR
r -t 0.008550148 -s 1 -d -1 -p CTS -e 38 -c 2 -a 0 -i 0 -k MAC
+ -t 0.008560148 -s 1 -d 16 -p AODV -e 102 -c 2 -a 0 -i 0 -k MAC 
- -t 0.008560148 -s 1 -d 16 -p AODV -e 102 -c 2 -a 0 -i 0 -k MAC
h -t 0.008560148 -s 1 -d 16 -p AODV -e 102 -c 2 -a 0 -i 0 -k MAC
+ -t 0.009185197 -s 15 -d -1 -p AODV -e 106 -c 2 -a 0 -i 0 -k MAC 
- -t 0.009185197 -s 15 -d -1 -p AODV -e 106 -c 2 -a 0 -i 0 -k MAC
h -t 0.009185197 -s 15 -d -1 -p AODV -e 106 -c 2 -a 0 -i 0 -k MAC
r -t 0.009376904 -s 16 -d 16 -p AODV -e 44 -c 2 -a 0 -i 0 -k MAC
+ -t 0.009386904 -s 16 -d -1 -p ACK -e 38 -c 2 -a 0 -i 0 -k MAC 
- -t 0.009386904 -s 16 -d -1 -p ACK -e 38 -c 2 -a 0 -i 0 -k MAC
h -t 0.009386904 -s 16 -d -1 -p ACK -e 38 -c 2 -a 0 -i 0 -k MAC
+ -t 0.009401904 -s 16 -d 17 -p AODV -e 44 -c 2 -a 0 -i 0 -k RTR 
- -t 0.009401904 -s 16 -d 17 -p AODV -e 44 -c 2 -a 0 -i 0 -k RTR
h -t 0.009401904 -s 16 -d 17 -p AODV -e 44 -c 2 -a 0 -i 0 -k RTR
r -t 0.009691660 -s 1 -d -1 -p ACK -e 38 -c 2 -a 0 -i 0 -k MAC
+ -t 0.009991341 -s 17 -d -1 -p AODV -e 106 -c 2 -a 0 -i 0 -k MAC 
- -t 0.009991341 -s 17 -d -1 -p AODV -e 106 -c 2 -a 0 -i 0 -k MAC
h -t 0.009991341 -s 17 -d -1 -p AODV -e 106 -c 2 -a 0 -i 0 -k MAC
r -t 0.010033683 -s 14 -d -1 -p AODV -e 48 -c 2 -a 0 -i 0 -k MAC
r -t 0.010033692 -s 10 -d -1 -p AODV -e 48 -c 2 -a 0 -i 0 -k MAC
r -t 0.010033705 -s 12 -d -1 -p AODV -e 48 -c 2 -a 0 -i 0 -k MAC
r -t 0.010033749 -s 13 -d -1 -p AODV -e 48 -c 2 -a 0 -i 0 -k MAC
r -t 0.010058683 -s 14 -d -1 -p AODV -e 48 -c 2 -a 0 -i 0 -k RTR
r -t 0.010058692 -s 10 -d -1 -p AODV -e 48 -c 2 -a 0 -i 0 -k RTR
r -t 0.010058705 -s 12 -d -1 -p AODV -e 48 -c 2 -a 0 -i 0 -k RTR
r -t 0.010058749 -s 13 -d -1 -p AODV -e 48 -c 2 -a 0 -i 0 -k RTR
+ -t 0.010105756 -s 5 -d -1 -p AODV -e 48 -c 2 -a 0 -i 0 -k RTR 
- -t 0.010105756 -s 5 -d -1 -p AODV -e 48 -c 2 -a 0 -i 0 -k RTR
h -t 0.010105756 -s 5 -d -1 -p AODV -e 48 -c 2 -a 0 -i 0 -k RTR
+ -t 0.010260756 -s 5 -d -1 -p AODV -e 106 -c 2 -a 0 -i 0 -k MAC 
- -t 0.010260756 -s 5 -d -1 -p AODV -e 106 -c 2 -a 0 -i 0 -k MAC
h -t 0.010260756 -s 5 -d -1 -p AODV -e 106 -c 2 -a 0 -i 0 -k MAC
+ -t 0.010481695 -s 16 -d -1 -p AODV -e 48 -c 2 -a 0 -i 0 -k RTR 
- -t 0.010481695 -s 16 -d -1 -p AODV -e 48 -c 2 -a 0 -i 0 -k RTR
h -t 0.010481695 -s 16 -d -1 -p AODV -e 48 -c 2 -a 0 -i 0 -k RTR
+ -t 0.010728705 -s 9 -d -1 -p AODV -e 106 -c 2 -a 0 -i 0 -k MAC 
- -t 0.010728705 -s 9 -d -1 -p AODV -e 106 -c 2 -a 0 -i 0 -k MAC
h -t 0.010728705 -s 9 -d -1 -p AODV -e 106 -c 2 -a 0 -i 0 -k MAC
d -t 0.010840019 -s 18 -d -1 -p AODV -e 106 -c 2 -a 0 -i 0 -k MAC
r -t 0.010840038 -s 16 -d -1 -p AODV -e 48 -c 2 -a 0 -i 0 -k MAC
d -t 0.010840078 -s 19 -d -1 -p AODV -e 106 -c 2 -a 0 -i 0 -k MAC
r -t 0.010865038 -s 16 -d -1 -p AODV -e 48 -c 2 -a 0 -i 0 -k RTR
r -t 0.011109234 -s 8 -d -1 -p AODV -e 48 -c 2 -a 0 -i 0 -k MAC
r -t 0.011134234 -s 8 -d -1 -p AODV -e 48 -c 2 -a 0 -i 0 -k RTR
+ -t 0.011526847 -s 3 -d -1 -p AODV -e 48 -c 2 -a 0 -i 0 -k RTR 
- -t 0.011526847 -s 3 -d -1 -p AODV -e 48 -c 2 -a 0 -i 0 -k RTR
h -t 0.011526847 -s 3 -d -1 -p AODV -e 48 -c 2 -a 0 -i 0 -k RTR
r -t 0.011577308 -s 4 -d -1 -p AODV -e 48 -c 2 -a 0 -i 0 -k MAC
d -t 0.011577466 -s 2 -d -1 -p AODV -e 106 -c 2 -a 0 -i 0 -k MAC
d -t 0.011577535 -s 0 -d -1 -p AODV -e 106 -c 2 -a 0 -i 0 -k MAC
r -t 0.011602308 -s 4 -d -1 -p AODV -e 48 -c 2 -a 0 -i 0 -k RTR
+ -t 0.011614604 -s 11 -d -1 -p AODV -e 106 -c 2 -a 0 -i 0 -k MAC 
- -t 0.011614604 -s 11 -d -1 -p AODV -e 106 -c 2 -a 0 -i 0 -k MAC
h -t 0.011614604 -s 11 -d -1 -p AODV -e 106 -c 2 -a 0 -i 0 -k MAC
+ -t 0.011868296 -s 18 -d -1 -p AODV -e 48 -c 2 -a 0 -i 0 -k RTR 
- -t 0.011868296 -s 18 -d -1 -p AODV -e 48 -c 2 -a 0 -i 0 -k RTR
h -t 0.011868296 -s 18 -d -1 -p AODV -e 48 -c 2 -a 0 -i 0 -k RTR
+ -t 0.012090521 -s 13 -d -1 -p AODV -e 48 -c 2 -a 0 -i 0 -k RTR 
- -t 0.012090521 -s 13 -d -1 -p AODV -e 48 -c 2 -a 0 -i 0 -k RTR
h -t 0.012090521 -s 13 -d -1 -p AODV -e 48 -c 2 -a 0 -i 0 -k RTR
+ -t 0.012375847 -s 19 -d -1 -p AODV -e 48 -c 2 -a 0 -i 0 -k RTR 
- -t 0.012375847 -s 19 -d -1 -p AODV -e 48 -c 2 -a 0 -i 0 -k RTR
h -t 0.012375847 -s 19 -d -1 -p AODV -e 48 -c 2 -a 0 -i 0 -k RTR
r -t 0.012462993 -s 13 -d -1 -p AODV -e 48 -c 2 -a 0 -i 0 -k MAC
r -t 0.012463188 -s 18 -d -1 -p AODV -e 48 -c 2 -a 0 -i 0 -k MAC
r -t 0.012463327 -s 19 -d -1 -p AODV -e 48 -c 2 -a 0 -i 0 -k MAC
r -t 0.012487993 -s 13 -d -1 -p AODV -e 48 -c 2 -a 0 -i 0 -k RTR
r -t 0.012488188 -s 18 -d -1 -p AODV -e 48 -c 2 -a 0 -i 0 -k RTR
r -t 0.012488327 -s 19 -d -1 -p AODV -e 48 -c 2 -a 0 -i 0 -k RTR
+ -t 0.012572993 -s 13 -d -1 -p AODV -e 106 -c 2 -a 0 -i 0 -k MAC 
- -t 0.012572993 -s 13 -d -1 -p AODV -e 106 -c 2 -a 0 -i 0 -k MAC
h -t 0.012572993 -s 13 -d -1 -p AODV -e 106 -c 2 -a 0 -i 0 -k MAC
r -t 0.013421381 -s 11 -d -1 -p AODV -e 48 -c 2 -a 0 -i 0 -k MAC
r -t 0.013421545 -s 15 -d -1 -p AODV -e 48 -c 2 -a 0 -i 0 -k MAC
r -t 0.013421687 -s 14 -d -1 -p AODV -e 48 -c 2 -a 0 -i 0 -k MAC
r -t 0.013421752 -s 12 -d -1 -p AODV -e 48 -c 2 -a 0 -i 0 -k MAC
r -t 0.013446381 -s 11 -d -1 -p AODV -e 48 -c 2 -a 0 -i 0 -k RTR
r -t 0.013446545 -s 15 -d -1 -p AODV -e 48 -c 2 -a 0 -i 0 -k RTR
r -t 0.013446687 -s 14 -d -1 -p AODV -e 48 -c 2 -a 0 -i 0 -k RTR
r -t 0.013446752 -s 12 -d -1 -p AODV -e 48 -c 2 -a 0 -i 0 -k RTR
+ -t 0.013591752 -s 12 -d -1 -p AODV -e 106 -c 2 -a 0 -i 0 -k MAC 
- -t 0.013591752 -s 12 -d -1 -p AODV -e 106 -c 2 -a 0 -i 0 -k MAC
h -t 0.013591752 -s 12 -d -1 -p AODV -e 106 -c 2 -a 0 -i 0 -k MAC
+ -t 0.013803065 -s 2 -d -1 -p AODV -e 48 -c 2 -a 0 -i 0 -k RTR 
- -t 0.013803065 -s 2 -d -1 -p AODV -e 48 -c 2 -a 0 -i 0 -k RTR
h -t 0.013803065 -s 2 -d -1 -p AODV -e 48 -c 2 -a 0 -i 0 -k RTR
+ -t 0.013803973 -s 15 -d -1 -p AODV -e 48 -c 2 -a 0 -i 0 -k RTR 
- -t 0.013803973 -s 15 -d -1 -p AODV -e 48 -c 2 -a 0 -i 0 -k RTR
h -t 0.013803973 -s 15 -d -1 -p AODV -e 48 -c 2 -a 0 -i 0 -k RTR
r -t 0.014440259 -s 15 -d -1 -p AODV -e 48 -c 2 -a 0 -i 0 -k MAC
r -t 0.014440453 -s 10 -d -1 -p AODV -e 48 -c 2 -a 0 -i 0 -k MAC
r -t 0.014440456 -s 2 -d -1 -p AODV -e 48 -c 2 -a 0 -i 0 -k MAC
r -t 0.014440511 -s 13 -d -1 -p AODV -e 48 -c 2 -a 0 -i 0 -k MAC
r -t 0.014465259 -s 15 -d -1 -p AODV -e 48 -c 2 -a 0 -i 0 -k RTR
r -t 0.014465453 -s 10 -d -1 -p AODV -e 48 -c 2 -a 0 -i 0 -k RTR
r -t 0.014465456 -s 2 -d -1 -p AODV -e 48 -c 2 -a 0 -i 0 -k RTR
r -t 0.014465511 -s 13 -d -1 -p AODV -e 48 -c 2 -a 0 -i 0 -k RTR
+ -t 0.014555333 -s 13 -d -1 -p AODV -e 48 -c 2 -a 0 -i 0 -k RTR 
- -t 0.014555333 -s 13 -d -1 -p AODV -e 48 -c 2 -a 0 -i 0 -k RTR
h -t 0.014555333 -s 13 -d -1 -p AODV -e 48 -c 2 -a 0 -i 0 -k RTR
+ -t 0.014610259 -s 15 -d -1 -p AODV -e 106 -c 2 -a 0 -i 0 -k MAC 
- -t 0.014610259 -s 15 -d -1 -p AODV -e 106 -c 2 -a 0 -i 0 -k MAC
h -t 0.014610259 -s 15 -d -1 -p AODV -e 106 -c 2 -a 0 -i 0 -k MAC
+ -t 0.015095141 -s 3 -d -1 -p AODV -e 106 -c 2 -a 0 -i 0 -k MAC 
- -t 0.015095141 -s 3 -d -1 -p AODV -e 106 -c 2 -a 0 -i 0 -k MAC
h -t 0.015095141 -s 3 -d -1 -p AODV -e 106 -c 2 -a 0 -i 0 -k MAC
+ -t 0.015233660 -s 11 -d -1 -p AODV -e 48 -c 2 -a 0 -i 0 -k RTR 
- -t 0.015233660 -s 11 -d -1 -p AODV -e 48 -c 2 -a 0 -i 0 -k RTR
h -t 0.015233660 -s 11 -d -1 -p AODV -e 48 -c 2 -a 0 -i 0 -k RTR
r -t 0.015458745 -s 14 -d -1 -p AODV -e 48 -c 2 -a 0 -i 0 -k MAC
r -t 0.015458754 -s 10 -d -1 -p AODV -e 48 -c 2 -a 0 -i 0 -k MAC
r -t 0.015458767 -s 12 -d -1 -p AODV -e 48 -c 2 -a 0 -i 0 -k MAC
r -t 0.015458811 -s 13 -d -1 -p AODV -e 48 -c 2 -a 0 -i 0 -k MAC
r -t 0.015483745 -s 14 -d -1 -p AODV -e 48 -c 2 -a 0 -i 0 -k RTR
r -t 0.015483754 -s 10 -d -1 -p AODV -e 48 -c 2 -a 0 -i 0 -k RTR
r -t 0.015483767 -s 12 -d -1 -p AODV -e 48 -c 2 -a 0 -i 0 -k RTR
r -t 0.015483811 -s 13 -d -1 -p AODV -e 48 -c 2 -a 0 -i 0 -k RTR
d -t 0.015943643 -s 16 -d -1 -p AODV -e 106 -c 2 -a 0 -i 0 -k MAC
d -t 0.015943839 -s 2 -d -1 -p AODV -e 106 -c 2 -a 0 -i 0 -k MAC
r -t 0.015943865 -s 1 -d -1 -p AODV -e 48 -c 2 -a 0 -i 0 -k MAC
r -t 0.015943929 -s 0 -d -1 -p AODV -e 48 -c 2 -a 0 -i 0 -k MAC
r -t 0.015968865 -s 1 -d -1 -p AODV -e 48 -c 2 -a 0 -i 0 -k RTR
r -t 0.015968929 -s 0 -d -1 -p AODV -e 48 -c 2 -a 0 -i 0 -k RTR
+ -t 0.016000000 -s 5 -d -1 -p cbr -e 1000 -c 2 -a 0 -i 20 -k AGT 
- -t 0.016000000 -s 5 -d -1 -p cbr -e 1000 -c 2 -a 0 -i 20 -k AGT
h -t 0.016000000 -s 5 -d -1 -p cbr -e 1000 -c 2 -a 0 -i 20 -k AGT
r -t 0.016000000 -s 5 -d -1 -p cbr -e 1000 -c 2 -a 0 -i 20 -k AGT
+ -t 0.016000000 -s 6 -d -1 -p cbr -e 1000 -c 2 -a 0 -i 21 -k AGT 
- -t 0.016000000 -s 6 -d -1 -p cbr -e 1000 -c 2 -a 0 -i 21 -k AGT
h -t 0.016000000 -s 6 -d -1 -p cbr -e 1000 -c 2 -a 0 -i 21 -k AGT
r -t 0.016000000 -s 6 -d -1 -p cbr -e 1000 -c 2 -a 0 -i 21 -k AGT
+ -t 0.016000000 -s 4 -d -1 -p cbr -e 1000 -c 2 -a 0 -i 22 -k AGT 
- -t 0.016000000 -s 4 -d -1 -p cbr -e 1000 -c 2 -a 0 -i 22 -k AGT
h -t 0.016000000 -s 4 -d -1 -p cbr -e 1000 -c 2 -a 0 -i 22 -k AGT
+ -t 0.016000000 -s 17 -d -1 -p cbr -e 1000 -c 2 -a 0 -i 23 -k AGT 
- -t 0.016000000 -s 17 -d -1 -p cbr -e 1000 -c 2 -a 0 -i 23 -k AGT
h -t 0.016000000 -s 17 -d -1 -p cbr -e 1000 -c 2 -a 0 -i 23 -k AGT
+ -t 0.016000000 -s 8 -d -1 -p cbr -e 1000 -c 2 -a 0 -i 24 -k AGT 
- -t 0.016000000 -s 8 -d -1 -p cbr -e 1000 -c 2 -a 0 -i 24 -k AGT
h -t 0.016000000 -s 8 -d -1 -p cbr -e 1000 -c 2 -a 0 -i 24 -k AGT
+ -t 0.016000000 -s 10 -d -1 -p cbr -e 1000 -c 2 -a 0 -i 25 -k AGT 
- -t 0.016000000 -s 10 -d -1 -p cbr -e 1000 -c 2 -a 0 -i 25 -k AGT
h -t 0.016000000 -s 10 -d -1 -p cbr -e 1000 -c 2 -a 0 -i 25 -k AGT
+ -t 0.016000000 -s 18 -d -1 -p cbr -e 1000 -c 2 -a 0 -i 26 -k AGT 
- -t 0.016000000 -s 18 -d -1 -p cbr -e 1000 -c 2 -a 0 -i 26 -k AGT
h -t 0.016000000 -s 18 -d -1 -p cbr -e 1000 -c 2 -a 0 -i 26 -k AGT
r -t 0.016000000 -s 18 -d -1 -p cbr -e 1000 -c 2 -a 0 -i 26 -k AGT
+ -t 0.016000000 -s 11 -d -1 -p cbr -e 1000 -c 2 -a 0 -i 27 -k AGT 
- -t 0.016000000 -s 11 -d -1 -p cbr -e 1000 -c 2 -a 0 -i 27 -k AGT
h -t 0.016000000 -s 11 -d -1 -p cbr -e 1000 -c 2 -a 0 -i 27 -k AGT
+ -t 0.016000000 -s 14 -d -1 -p cbr -e 1000 -c 2 -a 0 -i 28 -k AGT 
- -t 0.016000000 -s 14 -d -1 -p cbr -e 1000 -c 2 -a 0 -i 28 -k AGT
h -t 0.016000000 -s 14 -d -1 -p cbr -e 1000 -c 2 -a 0 -i 28 -k AGT
+ -t 0.016000000 -s 19 -d -1 -p cbr -e 1000 -c 2 -a 0 -i 29 -k AGT 
- -t 0.016000000 -s 19 -d -1 -p cbr -e 1000 -c 2 -a 0 -i 29 -k AGT
h -t 0.016000000 -s 19 -d -1 -p cbr -e 1000 -c 2 -a 0 -i 29 -k AGT
+ -t 0.016458834 -s 11 -d -1 -p AODV -e 106 -c 2 -a 0 -i 0 -k MAC 
- -t 0.016458834 -s 11 -d -1 -p AODV -e 106 -c 2 -a 0 -i 0 -k MAC
h -t 0.016458834 -s 11 -d -1 -p AODV -e 106 -c 2 -a 0 -i 0 -k MAC
+ -t 0.017122519 -s 13 -d -1 -p AODV -e 48 -c 2 -a 0 -i 0 -k RTR 
- -t 0.017122519 -s 13 -d -1 -p AODV -e 48 -c 2 -a 0 -i 0 -k RTR
h -t 0.017122519 -s 13 -d -1 -p AODV -e 48 -c 2 -a 0 -i 0 -k RTR
r -t 0.017307223 -s 13 -d -1 -p AODV -e 48 -c 2 -a 0 -i 0 -k MAC
r -t 0.017307419 -s 18 -d -1 -p AODV -e 48 -c 2 -a 0 -i 0 -k MAC
r -t 0.017307557 -s 19 -d -1 -p AODV -e 48 -c 2 -a 0 -i 0 -k MAC
r -t 0.017332223 -s 13 -d -1 -p AODV -e 48 -c 2 -a 0 -i 0 -k RTR
r -t 0.017332419 -s 18 -d -1 -p AODV -e 48 -c 2 -a 0 -i 0 -k RTR
r -t 0.017332557 -s 19 -d -1 -p AODV -e 48 -c 2 -a 0 -i 0 -k RTR
+ -t 0.017397557 -s 19 -d -1 -p AODV -e 106 -c 2 -a 0 -i 0 -k MAC 
- -t 0.017397557 -s 19 -d -1 -p AODV -e 106 -c 2 -a 0 -i 0 -k MAC
h -t 0.017397557 -s 19 -d -1 -p AODV -e 106 -c 2 -a 0 -i 0 -k MAC
+ -t 0.018214420 -s 18 -d -1 -p AODV -e 48 -c 2 -a 0 -i 0 -k RTR 
- -t 0.018214420 -s 18 -d -1 -p AODV -e 48 -c 2 -a 0 -i 0 -k RTR
h -t 0.018214420 -s 18 -d -1 -p AODV -e 48 -c 2 -a 0 -i 0 -k RTR
r -t 0.018245921 -s 18 -d -1 -p AODV -e 48 -c 2 -a 0 -i 0 -k MAC
r -t 0.018246208 -s 2 -d -1 -p AODV -e 48 -c 2 -a 0 -i 0 -k MAC
r -t 0.018246230 -s 16 -d -1 -p AODV -e 48 -c 2 -a 0 -i 0 -k MAC
r -t 0.018246280 -s 11 -d -1 -p AODV -e 48 -c 2 -a 0 -i 0 -k MAC
r -t 0.018246293 -s 17 -d -1 -p AODV -e 48 -c 2 -a 0 -i 0 -k MAC
r -t 0.018270921 -s 18 -d -1 -p AODV -e 48 -c 2 -a 0 -i 0 -k RTR
r -t 0.018271208 -s 2 -d -1 -p AODV -e 48 -c 2 -a 0 -i 0 -k RTR
r -t 0.018271230 -s 16 -d -1 -p AODV -e 48 -c 2 -a 0 -i 0 -k RTR
r -t 0.018271280 -s 11 -d -1 -p AODV -e 48 -c 2 -a 0 -i 0 -k RTR
r -t 0.018271293 -s 17 -d -1 -p AODV -e 48 -c 2 -a 0 -i 0 -k RTR
+ -t 0.018355557 -s 19 -d -1 -p AODV -e 106 -c 2 -a 0 -i 0 -k MAC 
- -t 0.018355557 -s 19 -d -1 -p AODV -e 106 -c 2 -a 0 -i 0 -k MAC
h -t 0.018355557 -s 19 -d -1 -p AODV -e 106 -c 2 -a 0 -i 0 -k MAC
r -t 0.019203921 -s 18 -d -1 -p AODV -e 48 -c 2 -a 0 -i 0 -k MAC
r -t 0.019204208 -s 2 -d -1 -p AODV -e 48 -c 2 -a 0 -i 0 -k MAC
r -t 0.019204230 -s 16 -d -1 -p AODV -e 48 -c 2 -a 0 -i 0 -k MAC
r -t 0.019204280 -s 11 -d -1 -p AODV -e 48 -c 2 -a 0 -i 0 -k MAC
r -t 0.019204293 -s 17 -d -1 -p AODV -e 48 -c 2 -a 0 -i 0 -k MAC
r -t 0.019228921 -s 18 -d -1 -p AODV -e 48 -c 2 -a 0 -i 0 -k RTR
r -t 0.019229208 -s 2 -d -1 -p AODV -e 48 -c 2 -a 0 -i 0 -k RTR
r -t 0.019229230 -s 16 -d -1 -p AODV -e 48 -c 2 -a 0 -i 0 -k RTR
r -t 0.019229280 -s 11 -d -1 -p AODV -e 48 -c 2 -a 0 -i 0 -k RTR